 Entering Gaussian System, Link 0=g16
 Input=2-aminopropanenitrile_298K.com
 Output=2-aminopropanenitrile_298K.log
 Initial command:
 /apps/external/apps/gaussian/g16-B.01/g16-haswell/g16/l1.exe "/depot/pearce21/data/madani/2AH/Gau-445330.inp" -scrdir="/depot/pearce21/data/madani/2AH/"
 Entering Link 1 = /apps/external/apps/gaussian/g16-B.01/g16-haswell/g16/l1.exe PID=    445332.
  
 Copyright (c) 1988-2017, Gaussian, Inc.  All Rights Reserved.
  
 This is part of the Gaussian(R) 16 program.  It is based on
 the Gaussian(R) 09 system (copyright 2009, Gaussian, Inc.),
 the Gaussian(R) 03 system (copyright 2003, Gaussian, Inc.),
 the Gaussian(R) 98 system (copyright 1998, Gaussian, Inc.),
 the Gaussian(R) 94 system (copyright 1995, Gaussian, Inc.),
 the Gaussian 92(TM) system (copyright 1992, Gaussian, Inc.),
 the Gaussian 90(TM) system (copyright 1990, Gaussian, Inc.),
 the Gaussian 88(TM) system (copyright 1988, Gaussian, Inc.),
 the Gaussian 86(TM) system (copyright 1986, Carnegie Mellon
 University), and the Gaussian 82(TM) system (copyright 1983,
 Carnegie Mellon University). Gaussian is a federally registered
 trademark of Gaussian, Inc.
  
 This software contains proprietary and confidential information,
 including trade secrets, belonging to Gaussian, Inc.
  
 This software is provided under written license and may be
 used, copied, transmitted, or stored only in accord with that
 written license.
  
 The following legend is applicable only to US Government
 contracts under FAR:
  
                    RESTRICTED RIGHTS LEGEND
  
 Use, reproduction and disclosure by the US Government is
 subject to restrictions as set forth in subparagraphs (a)
 and (c) of the Commercial Computer Software - Restricted
 Rights clause in FAR 52.227-19.
  
 Gaussian, Inc.
 340 Quinnipiac St., Bldg. 40, Wallingford CT 06492
  
  
 ---------------------------------------------------------------
 Warning -- This program may not be used in any manner that
 competes with the business of Gaussian, Inc. or will provide
 assistance to any competitor of Gaussian, Inc.  The licensee
 of this program is prohibited from giving any competitor of
 Gaussian, Inc. access to this program.  By using this program,
 the user acknowledges that Gaussian, Inc. is engaged in the
 business of creating and licensing software in the field of
 computational chemistry and represents and warrants to the
 licensee that it is not a competitor of Gaussian, Inc. and that
 it will not use this program in any manner prohibited above.
 ---------------------------------------------------------------
  

 Cite this work as:
 Gaussian 16, Revision B.01,
 M. J. Frisch, G. W. Trucks, H. B. Schlegel, G. E. Scuseria, 
 M. A. Robb, J. R. Cheeseman, G. Scalmani, V. Barone, 
 G. A. Petersson, H. Nakatsuji, X. Li, M. Caricato, A. V. Marenich, 
 J. Bloino, B. G. Janesko, R. Gomperts, B. Mennucci, H. P. Hratchian, 
 J. V. Ortiz, A. F. Izmaylov, J. L. Sonnenberg, D. Williams-Young, 
 F. Ding, F. Lipparini, F. Egidi, J. Goings, B. Peng, A. Petrone, 
 T. Henderson, D. Ranasinghe, V. G. Zakrzewski, J. Gao, N. Rega, 
 G. Zheng, W. Liang, M. Hada, M. Ehara, K. Toyota, R. Fukuda, 
 J. Hasegawa, M. Ishida, T. Nakajima, Y. Honda, O. Kitao, H. Nakai, 
 T. Vreven, K. Throssell, J. A. Montgomery, Jr., J. E. Peralta, 
 F. Ogliaro, M. J. Bearpark, J. J. Heyd, E. N. Brothers, K. N. Kudin, 
 V. N. Staroverov, T. A. Keith, R. Kobayashi, J. Normand, 
 K. Raghavachari, A. P. Rendell, J. C. Burant, S. S. Iyengar, 
 J. Tomasi, M. Cossi, J. M. Millam, M. Klene, C. Adamo, R. Cammi, 
 J. W. Ochterski, R. L. Martin, K. Morokuma, O. Farkas, 
 J. B. Foresman, and D. J. Fox, Gaussian, Inc., Wallingford CT, 2016.
 
 ******************************************
 Gaussian 16:  ES64L-G16RevB.01 20-Dec-2017
                 9-Jul-2025 
 ******************************************
 %nprocshared=16
 Will use up to   16 processors via shared memory.
 %mem=32GB
 %Chk=2-aminopropanenitrile_298K.chk
 --------------------------------------------------------
 # opt b3lyp/6-311++g(2df,2p) scrf=(iefpcm,solvent=water)
 --------------------------------------------------------
 1/18=20,19=15,26=3,38=1/1,3;
 2/9=110,12=2,17=6,18=5,40=1/2;
 3/5=4,6=6,7=1214,11=2,25=1,30=1,70=2201,71=1,72=1,74=-5/1,2,3;
 4//1;
 5/5=2,38=5,53=1/2;
 6/7=2,8=2,9=2,10=2,28=1/1;
 7//1,2,3,16;
 1/18=20,19=15,26=3/3(2);
 2/9=110/2;
 99//99;
 2/9=110/2;
 3/5=4,6=6,7=1214,11=2,25=1,30=1,70=2205,71=1,72=1,74=-5/1,2,3;
 4/5=5,16=3,69=1/1;
 5/5=2,38=5,53=1/2;
 7//1,2,3,16;
 1/18=20,19=15,26=3/3(-5);
 2/9=110/2;
 6/7=2,8=2,9=2,10=2,19=2,28=1/1;
 99/9=1/99;
 -----------------------------------
 2-aminopropanenitrile | OPT @ 298 K
 -----------------------------------
 Symbolic Z-matrix:
 Charge =  0 Multiplicity = 1
 C                     0.91655  -0.04741  -0.01957 
 C                     0.40674   1.381     0.1424 
 C                     0.91341   2.23936  -1.00517 
 N                     1.33372   2.95144  -1.95717 
 N                    -1.06495   1.36449   0.19082 
 H                     0.57653  -0.49345  -0.96214 
 H                     0.57076  -0.68539   0.80122 
 H                     2.0122   -0.07134  -0.02337 
 H                     0.78182   1.79577   1.08437 
 H                    -1.40684   2.32465   0.25901 
 H                    -1.42559   1.00843  -0.6955 
 

 GradGradGradGradGradGradGradGradGradGradGradGradGradGradGradGradGradGrad
 Berny optimization.
 Initialization pass.
                           ----------------------------
                           !    Initial Parameters    !
                           ! (Angstroms and Degrees)  !
 --------------------------                            --------------------------
 ! Name  Definition              Value          Derivative Info.                !
 --------------------------------------------------------------------------------
 ! R1    R(1,2)                  1.5253         estimate D2E/DX2                !
 ! R2    R(1,6)                  1.0968         estimate D2E/DX2                !
 ! R3    R(1,7)                  1.0956         estimate D2E/DX2                !
 ! R4    R(1,8)                  1.0959         estimate D2E/DX2                !
 ! R5    R(2,3)                  1.52           estimate D2E/DX2                !
 ! R6    R(2,5)                  1.4726         estimate D2E/DX2                !
 ! R7    R(2,9)                  1.0955         estimate D2E/DX2                !
 ! R8    R(3,4)                  1.261          estimate D2E/DX2                !
 ! R9    R(5,10)                 1.0215         estimate D2E/DX2                !
 ! R10   R(5,11)                 1.021          estimate D2E/DX2                !
 ! A1    A(2,1,6)              111.6219         estimate D2E/DX2                !
 ! A2    A(2,1,7)              111.1179         estimate D2E/DX2                !
 ! A3    A(2,1,8)              110.7919         estimate D2E/DX2                !
 ! A4    A(6,1,7)              108.0092         estimate D2E/DX2                !
 ! A5    A(6,1,8)              107.3418         estimate D2E/DX2                !
 ! A6    A(7,1,8)              107.784          estimate D2E/DX2                !
 ! A7    A(1,2,3)              109.7099         estimate D2E/DX2                !
 ! A8    A(1,2,5)              109.0886         estimate D2E/DX2                !
 ! A9    A(1,2,9)              109.3567         estimate D2E/DX2                !
 ! A10   A(3,2,5)              111.3638         estimate D2E/DX2                !
 ! A11   A(3,2,9)              108.7385         estimate D2E/DX2                !
 ! A12   A(5,2,9)              108.5517         estimate D2E/DX2                !
 ! A13   A(2,5,10)             109.0353         estimate D2E/DX2                !
 ! A14   A(2,5,11)             109.1706         estimate D2E/DX2                !
 ! A15   A(10,5,11)            105.5173         estimate D2E/DX2                !
 ! A16   L(2,3,4,8,-1)         180.0005         estimate D2E/DX2                !
 ! A17   L(2,3,4,8,-2)         179.9997         estimate D2E/DX2                !
 ! D1    D(6,1,2,3)            -59.8102         estimate D2E/DX2                !
 ! D2    D(6,1,2,5)             62.4286         estimate D2E/DX2                !
 ! D3    D(6,1,2,9)           -178.9894         estimate D2E/DX2                !
 ! D4    D(7,1,2,3)            179.5524         estimate D2E/DX2                !
 ! D5    D(7,1,2,5)            -58.2088         estimate D2E/DX2                !
 ! D6    D(7,1,2,9)             60.3732         estimate D2E/DX2                !
 ! D7    D(8,1,2,3)             59.7587         estimate D2E/DX2                !
 ! D8    D(8,1,2,5)           -178.0025         estimate D2E/DX2                !
 ! D9    D(8,1,2,9)            -59.4205         estimate D2E/DX2                !
 ! D10   D(1,2,5,10)          -177.6006         estimate D2E/DX2                !
 ! D11   D(1,2,5,11)           -62.7931         estimate D2E/DX2                !
 ! D12   D(3,2,5,10)           -56.3635         estimate D2E/DX2                !
 ! D13   D(3,2,5,11)            58.4439         estimate D2E/DX2                !
 ! D14   D(9,2,5,10)            63.3152         estimate D2E/DX2                !
 ! D15   D(9,2,5,11)           178.1226         estimate D2E/DX2                !
 --------------------------------------------------------------------------------
 Trust Radius=3.00D-01 FncErr=1.00D-07 GrdErr=1.00D-06 EigMax=2.50D+02 EigMin=1.00D-04
 Number of steps in this run=     52 maximum allowed number of steps=    100.
 GradGradGradGradGradGradGradGradGradGradGradGradGradGradGradGradGradGrad

                          Input orientation:                          
 ---------------------------------------------------------------------
 Center     Atomic      Atomic             Coordinates (Angstroms)
 Number     Number       Type             X           Y           Z
 ---------------------------------------------------------------------
      1          6           0        0.916550   -0.047410   -0.019570
      2          6           0        0.406740    1.381000    0.142400
      3          6           0        0.913410    2.239360   -1.005170
      4          7           0        1.333720    2.951440   -1.957170
      5          7           0       -1.064950    1.364490    0.190820
      6          1           0        0.576530   -0.493450   -0.962140
      7          1           0        0.570760   -0.685390    0.801220
      8          1           0        2.012200   -0.071340   -0.023370
      9          1           0        0.781820    1.795770    1.084370
     10          1           0       -1.406840    2.324650    0.259010
     11          1           0       -1.425590    1.008430   -0.695500
 ---------------------------------------------------------------------
                    Distance matrix (angstroms):
                    1          2          3          4          5
     1  C    0.000000
     2  C    1.525285   0.000000
     3  C    2.490127   1.520004   0.000000
     4  N    3.594638   2.780965   1.260961   0.000000
     5  N    2.442144   1.472579   2.471780   3.589692   0.000000
     6  H    1.096815   2.182292   2.753832   3.664790   2.734175
     7  H    1.095575   2.175066   3.454651   4.627889   2.692609
     8  H    1.095918   2.171238   2.740548   3.652002   3.402402
     9  H    2.152707   1.095457   2.140155   3.300172   2.096424
    10  H    3.332029   2.047717   2.643669   3.579803   1.021492
    11  H    2.656558   2.048980   2.661204   3.602900   1.020981
                    6          7          8          9         10
     6  H    0.000000
     7  H    1.773785   0.000000
     8  H    1.766526   1.770524   0.000000
     9  H    3.077479   2.506167   2.495400   0.000000
    10  H    3.656043   3.642147   4.184536   2.398159   0.000000
    11  H    2.516987   3.015727   3.665523   2.942873   1.626000
                   11
    11  H    0.000000
 Stoichiometry    C3H6N2
 Framework group  C1[X(C3H6N2)]
 Deg. of freedom    27
 Full point group                 C1      NOp   1
 Largest Abelian subgroup         C1      NOp   1
 Largest concise Abelian subgroup C1      NOp   1
                         Standard orientation:                         
 ---------------------------------------------------------------------
 Center     Atomic      Atomic             Coordinates (Angstroms)
 Number     Number       Type             X           Y           Z
 ---------------------------------------------------------------------
      1          6           0       -1.138239   -1.175289   -0.146796
      2          6           0       -0.421036    0.042691    0.426476
      3          6           0        1.062876   -0.038996    0.107500
      4          7           0        2.293895   -0.106750   -0.157119
      5          7           0       -1.023637    1.264128   -0.133393
      6          1           0       -1.020899   -1.238082   -1.235507
      7          1           0       -2.210231   -1.143742    0.077086
      8          1           0       -0.734417   -2.100758    0.279198
      9          1           0       -0.546706    0.059249    1.514575
     10          1           0       -0.516974    2.077704    0.219923
     11          1           0       -0.884189    1.273551   -1.144763
 ---------------------------------------------------------------------
 Rotational constants (GHZ):           8.3161070           3.7274351           2.8168161
 Standard basis: 6-311++G(2df,2p) (5D, 7F)
 There are   255 symmetry adapted cartesian basis functions of A   symmetry.
 There are   230 symmetry adapted basis functions of A   symmetry.
   230 basis functions,   332 primitive gaussians,   255 cartesian basis functions
    19 alpha electrons       19 beta electrons
       nuclear repulsion energy       156.6952410735 Hartrees.
 NAtoms=   11 NActive=   11 NUniq=   11 SFac= 1.00D+00 NAtFMM=   60 NAOKFM=F Big=F
 Integral buffers will be    131072 words long.
 Raffenetti 2 integral format.
 Two-electron integral symmetry is turned on.
 ------------------------------------------------------------------------------
 Polarizable Continuum Model (PCM)
 =================================
 Model                : PCM.
 Atomic radii         : UFF (Universal Force Field).
 Polarization charges : Total charges.
 Charge compensation  : None.
 Solution method      : On-the-fly selection.
 Cavity type          : Scaled VdW (van der Waals Surface) (Alpha=1.100).
 Cavity algorithm     : GePol (No added spheres)
                        Default sphere list used, NSphG=   11.
                        Lebedev-Laikov grids with approx.  5.0 points / Ang**2.
                        Smoothing algorithm: York/Karplus (Gamma=1.0000).
                        Polarization charges: spherical gaussians, with
                                              point-specific exponents (IZeta= 3).
                        Self-potential: point-specific (ISelfS= 7).
                        Self-field    : sphere-specific E.n sum rule (ISelfD= 2).
 1st derivatives      : Analytical E(r).r(x)/FMM algorithm (CHGder, D1EAlg=3).
                        Cavity 1st derivative terms included.
 Solvent              : Water, Eps=  78.355300 Eps(inf)=   1.777849
 ------------------------------------------------------------------------------
 Spheres list:
 ISph  on   Nord     Re0    Alpha      Xe            Ye            Ze
    1   C      1    1.9255  1.100     -1.138239     -1.175289     -0.146796
    2   C      2    1.9255  1.100     -0.421036      0.042691      0.426476
    3   C      3    1.9255  1.100      1.062876     -0.038996      0.107500
    4   N      4    1.8300  1.100      2.293895     -0.106750     -0.157119
    5   N      5    1.8300  1.100     -1.023637      1.264128     -0.133393
    6   H      6    1.4430  1.100     -1.020899     -1.238082     -1.235507
    7   H      7    1.4430  1.100     -2.210231     -1.143742      0.077086
    8   H      8    1.4430  1.100     -0.734417     -2.100758      0.279198
    9   H      9    1.4430  1.100     -0.546706      0.059249      1.514575
   10   H     10    1.4430  1.100     -0.516974      2.077704      0.219923
   11   H     11    1.4430  1.100     -0.884189      1.273551     -1.144763
 ------------------------------------------------------------------------------
 One-electron integrals computed using PRISM.
 NBasis=   230 RedAO= T EigKep=  1.64D-05  NBF=   230
 NBsUse=   230 1.00D-06 EigRej= -1.00D+00 NBFU=   230
 ExpMin= 3.60D-02 ExpMax= 6.29D+03 ExpMxC= 9.49D+02 IAcc=3 IRadAn=         5 AccDes= 0.00D+00
 Harris functional with IExCor=  402 and IRadAn=       5 diagonalized for initial guess.
 HarFok:  IExCor=  402 AccDes= 0.00D+00 IRadAn=         5 IDoV= 1 UseB2=F ITyADJ=14
 ICtDFT=  3500011 ScaDFX=  1.000000  1.000000  1.000000  1.000000
 FoFCou: FMM=F IPFlag=           0 FMFlag=      100000 FMFlg1=           0
         NFxFlg=           0 DoJE=T BraDBF=F KetDBF=T FulRan=T
         wScrn=  0.000000 ICntrl=       500 IOpCl=  0 I1Cent=   200000004 NGrid=           0
         NMat0=    1 NMatS0=      1 NMatT0=    0 NMatD0=    1 NMtDS0=    0 NMtDT0=    0
 Petite list used in FoFCou.
 Keep R1 ints in memory in canonical form, NReq=370211762.
 Requested convergence on RMS density matrix=1.00D-08 within 128 cycles.
 Requested convergence on MAX density matrix=1.00D-06.
 Requested convergence on             energy=1.00D-06.
 No special actions if energy rises.
 Inv3:  Mode=1 IEnd=     3054243.
 Iteration    1 A*A^-1 deviation from unit magnitude is 3.11D-15 for    243.
 Iteration    1 A*A^-1 deviation from orthogonality  is 1.68D-15 for    956     39.
 Iteration    1 A^-1*A deviation from unit magnitude is 2.66D-15 for     60.
 Iteration    1 A^-1*A deviation from orthogonality  is 1.67D-15 for    855    570.
 Error on total polarization charges =  0.01284
 SCF Done:  E(RB3LYP) =  -227.486118846     A.U. after   13 cycles
            NFock= 13  Conv=0.22D-08     -V/T= 2.0067

 **********************************************************************

            Population analysis using the SCF Density.

 **********************************************************************

 Orbital symmetries:
       Occupied  (A) (A) (A) (A) (A) (A) (A) (A) (A) (A) (A) (A)
                 (A) (A) (A) (A) (A) (A) (A)
       Virtual   (A) (A) (A) (A) (A) (A) (A) (A) (A) (A) (A) (A)
                 (A) (A) (A) (A) (A) (A) (A) (A) (A) (A) (A) (A)
                 (A) (A) (A) (A) (A) (A) (A) (A) (A) (A) (A) (A)
                 (A) (A) (A) (A) (A) (A) (A) (A) (A) (A) (A) (A)
                 (A) (A) (A) (A) (A) (A) (A) (A) (A) (A) (A) (A)
                 (A) (A) (A) (A) (A) (A) (A) (A) (A) (A) (A) (A)
                 (A) (A) (A) (A) (A) (A) (A) (A) (A) (A) (A) (A)
                 (A) (A) (A) (A) (A) (A) (A) (A) (A) (A) (A) (A)
                 (A) (A) (A) (A) (A) (A) (A) (A) (A) (A) (A) (A)
                 (A) (A) (A) (A) (A) (A) (A) (A) (A) (A) (A) (A)
                 (A) (A) (A) (A) (A) (A) (A) (A) (A) (A) (A) (A)
                 (A) (A) (A) (A) (A) (A) (A) (A) (A) (A) (A) (A)
                 (A) (A) (A) (A) (A) (A) (A) (A) (A) (A) (A) (A)
                 (A) (A) (A) (A) (A) (A) (A) (A) (A) (A) (A) (A)
                 (A) (A) (A) (A) (A) (A) (A) (A) (A) (A) (A) (A)
                 (A) (A) (A) (A) (A) (A) (A) (A) (A) (A) (A) (A)
                 (A) (A) (A) (A) (A) (A) (A) (A) (A) (A) (A) (A)
                 (A) (A) (A) (A) (A) (A) (A)
 The electronic state is 1-A.
 Alpha  occ. eigenvalues --  -14.35043 -14.32271 -10.26025 -10.25305 -10.17919
 Alpha  occ. eigenvalues --   -0.92460  -0.87924  -0.76791  -0.66064  -0.54709
 Alpha  occ. eigenvalues --   -0.51624  -0.46457  -0.42165  -0.39849  -0.39040
 Alpha  occ. eigenvalues --   -0.38409  -0.33931  -0.32983  -0.28335
 Alpha virt. eigenvalues --   -0.02813  -0.02152  -0.00616   0.01624   0.01850
 Alpha virt. eigenvalues --    0.02351   0.04738   0.05168   0.05779   0.07351
 Alpha virt. eigenvalues --    0.08217   0.08863   0.10524   0.11376   0.11875
 Alpha virt. eigenvalues --    0.12265   0.12936   0.13670   0.13819   0.15008
 Alpha virt. eigenvalues --    0.16134   0.16278   0.18004   0.18561   0.19217
 Alpha virt. eigenvalues --    0.20565   0.21170   0.22851   0.23611   0.24149
 Alpha virt. eigenvalues --    0.25141   0.25503   0.26423   0.27187   0.30166
 Alpha virt. eigenvalues --    0.31862   0.35440   0.41686   0.44003   0.45518
 Alpha virt. eigenvalues --    0.47032   0.49671   0.52221   0.53779   0.55531
 Alpha virt. eigenvalues --    0.56148   0.58169   0.58581   0.59834   0.61621
 Alpha virt. eigenvalues --    0.62707   0.63986   0.64918   0.65794   0.66135
 Alpha virt. eigenvalues --    0.66470   0.69595   0.71711   0.73453   0.75378
 Alpha virt. eigenvalues --    0.77423   0.80699   0.83944   0.85439   0.85675
 Alpha virt. eigenvalues --    0.86583   0.89066   0.90733   0.92879   0.96648
 Alpha virt. eigenvalues --    0.99713   1.01669   1.05123   1.07666   1.08964
 Alpha virt. eigenvalues --    1.10939   1.13186   1.16366   1.18843   1.22752
 Alpha virt. eigenvalues --    1.23208   1.25180   1.25930   1.28152   1.31277
 Alpha virt. eigenvalues --    1.33112   1.34282   1.36952   1.38584   1.41253
 Alpha virt. eigenvalues --    1.44037   1.44730   1.48153   1.49936   1.51994
 Alpha virt. eigenvalues --    1.54182   1.57649   1.63751   1.67145   1.72041
 Alpha virt. eigenvalues --    1.73073   1.80470   1.86682   1.91626   1.95846
 Alpha virt. eigenvalues --    1.97314   2.11655   2.45650   2.49924   2.52829
 Alpha virt. eigenvalues --    2.55160   2.61848   2.64321   2.69039   2.72733
 Alpha virt. eigenvalues --    2.75102   2.77857   2.78160   2.81236   2.84332
 Alpha virt. eigenvalues --    2.86868   2.90733   2.93238   2.95517   2.96935
 Alpha virt. eigenvalues --    3.00216   3.01026   3.05310   3.11106   3.12743
 Alpha virt. eigenvalues --    3.16166   3.19035   3.22126   3.26432   3.27213
 Alpha virt. eigenvalues --    3.31784   3.34445   3.36829   3.37470   3.38460
 Alpha virt. eigenvalues --    3.41881   3.46226   3.50126   3.53881   3.54412
 Alpha virt. eigenvalues --    3.56766   3.61779   3.62447   3.63437   3.68435
 Alpha virt. eigenvalues --    3.72215   3.75384   3.78465   3.79487   3.81283
 Alpha virt. eigenvalues --    3.83686   3.88734   3.89584   3.94519   3.98870
 Alpha virt. eigenvalues --    4.01522   4.03332   4.04261   4.06137   4.09394
 Alpha virt. eigenvalues --    4.14430   4.17607   4.20103   4.20843   4.24116
 Alpha virt. eigenvalues --    4.28033   4.29361   4.35811   4.38548   4.44512
 Alpha virt. eigenvalues --    4.49238   4.50259   4.55099   4.57747   4.61528
 Alpha virt. eigenvalues --    4.69826   4.73305   4.79013   4.79792   4.81205
 Alpha virt. eigenvalues --    4.86667   4.90782   5.02969   5.15167   5.18660
 Alpha virt. eigenvalues --    5.21742   5.25649   5.29827   5.31584   5.39828
 Alpha virt. eigenvalues --    5.48734   5.59278   5.61982   5.67874   5.70143
 Alpha virt. eigenvalues --    5.72071   5.79296   5.83248   6.16081   6.45320
 Alpha virt. eigenvalues --    6.76199  24.24147  24.28653  24.48751  35.70441
 Alpha virt. eigenvalues --   35.92907
          Condensed to atoms (all electrons):
               1          2          3          4          5          6
     1  C    5.096883  -0.024116   0.250262  -0.015556  -0.052646   0.390059
     2  C   -0.024116   5.546974  -0.460761   0.100440   0.264971   0.024887
     3  C    0.250262  -0.460761   5.900766   0.403277  -0.018773  -0.036366
     4  N   -0.015556   0.100440   0.403277   6.912374  -0.008783   0.000768
     5  N   -0.052646   0.264971  -0.018773  -0.008783   6.527864  -0.019964
     6  H    0.390059   0.024887  -0.036366   0.000768  -0.019964   0.561546
     7  H    0.385327  -0.024780  -0.002880   0.001387   0.002369  -0.029456
     8  H    0.412613  -0.035937  -0.002916  -0.001232   0.013701  -0.031435
     9  H   -0.043499   0.477693  -0.059460  -0.001571  -0.051022   0.006945
    10  H    0.010942  -0.038106   0.001315  -0.000084   0.366864   0.000804
    11  H   -0.008493  -0.031899   0.013123  -0.001642   0.360622   0.004309
               7          8          9         10         11
     1  C    0.385327   0.412613  -0.043499   0.010942  -0.008493
     2  C   -0.024780  -0.035937   0.477693  -0.038106  -0.031899
     3  C   -0.002880  -0.002916  -0.059460   0.001315   0.013123
     4  N    0.001387  -0.001232  -0.001571  -0.000084  -0.001642
     5  N    0.002369   0.013701  -0.051022   0.366864   0.360622
     6  H   -0.029456  -0.031435   0.006945   0.000804   0.004309
     7  H    0.556361  -0.026423  -0.004237   0.000724  -0.002399
     8  H   -0.026423   0.564382  -0.005393  -0.001427   0.000387
     9  H   -0.004237  -0.005393   0.531205  -0.003586   0.007645
    10  H    0.000724  -0.001427  -0.003586   0.474376  -0.031729
    11  H   -0.002399   0.000387   0.007645  -0.031729   0.477538
 Mulliken charges:
               1
     1  C   -0.401777
     2  C    0.200634
     3  C    0.012413
     4  N   -0.389378
     5  N   -0.385203
     6  H    0.127904
     7  H    0.144005
     8  H    0.113678
     9  H    0.145281
    10  H    0.219907
    11  H    0.212536
 Sum of Mulliken charges =  -0.00000
 Mulliken charges with hydrogens summed into heavy atoms:
               1
     1  C   -0.016190
     2  C    0.345915
     3  C    0.012413
     4  N   -0.389378
     5  N    0.047240
 Electronic spatial extent (au):  <R**2>=            459.3331
 Charge=             -0.0000 electrons
 Dipole moment (field-independent basis, Debye):
    X=             -3.6915    Y=              0.2168    Z=              0.5012  Tot=              3.7317
 Quadrupole moment (field-independent basis, Debye-Ang):
   XX=            -45.7572   YY=            -28.4907   ZZ=            -28.5747
   XY=              3.2052   XZ=              1.4585   YZ=             -0.6599
 Traceless Quadrupole moment (field-independent basis, Debye-Ang):
   XX=            -11.4829   YY=              5.7835   ZZ=              5.6995
   XY=              3.2052   XZ=              1.4585   YZ=             -0.6599
 Octapole moment (field-independent basis, Debye-Ang**2):
  XXX=            -30.0877  YYY=              7.7156  ZZZ=             -0.2705  XYY=             -1.1519
  XXY=             -4.6488  XXZ=              2.0718  XZZ=             -5.0364  YZZ=              2.7089
  YYZ=             -0.0282  XYZ=              0.8279
 Hexadecapole moment (field-independent basis, Debye-Ang**3):
 XXXX=           -475.1337 YYYY=           -164.9892 ZZZZ=            -54.6100 XXXY=             17.5645
 XXXZ=              5.9642 YYYX=              2.3085 YYYZ=             -1.5468 ZZZX=              2.4999
 ZZZY=             -2.2657 XXYY=           -104.9798 XXZZ=            -76.5203 YYZZ=            -38.5193
 XXYZ=             -1.7244 YYXZ=              2.0536 ZZXY=             -1.5259
 N-N= 1.566952410735D+02 E-N=-8.420258469017D+02  KE= 2.259651770471D+02
 D1PCM: PCM CHGder 1st derivatives, ID1Alg=3 FixD1E=F DoIter=F DoCFld=F I1PDM=0.
 Calling FoFJK, ICntrl=      2127 FMM=F ISym2X=0 I1Cent= 0 IOpClX= 0 NMat=1 NMatS=1 NMatT=0.
 ***** Axes restored to original set *****
 -------------------------------------------------------------------
 Center     Atomic                   Forces (Hartrees/Bohr)
 Number     Number              X              Y              Z
 -------------------------------------------------------------------
      1        6           0.010709610   -0.008669931   -0.003143831
      2        6          -0.006180062    0.000171438   -0.011571610
      3        6           0.059615792    0.092868551   -0.117937474
      4        7          -0.061715821   -0.101966379    0.135714263
      5        7           0.002328225    0.011601944   -0.005839752
      6        1          -0.000075321    0.003164864    0.003623239
      7        1          -0.000568235    0.006104515   -0.002044102
      8        1          -0.003993652    0.000347417    0.000007700
      9        1          -0.000357648    0.002266050   -0.005654412
     10        1          -0.000684577   -0.005729531    0.001941614
     11        1           0.000921689   -0.000158937    0.004904365
 -------------------------------------------------------------------
 Cartesian Forces:  Max     0.135714263 RMS     0.042440125

 GradGradGradGradGradGradGradGradGradGradGradGradGradGradGradGradGradGrad
 Berny optimization.
 FormGI is forming the generalized inverse of G from B-inverse, IUseBI=4.
 Internal  Forces:  Max     0.180614983 RMS     0.028172441
 Search for a local minimum.
 Step number   1 out of a maximum of   52
 All quantities printed in internal units (Hartrees-Bohrs-Radians)
 Mixed Optimization -- RFO/linear search
 Second derivative matrix not updated -- first step.
 ITU=  0
     Eigenvalues ---    0.00431   0.00732   0.03531   0.03531   0.04549
     Eigenvalues ---    0.05443   0.05487   0.05581   0.05945   0.09735
     Eigenvalues ---    0.16000   0.16000   0.16000   0.16000   0.16000
     Eigenvalues ---    0.17344   0.23350   0.29863   0.30366   0.34037
     Eigenvalues ---    0.34138   0.34176   0.34190   0.35433   0.44101
     Eigenvalues ---    0.44182   0.79315
 RFO step:  Lambda=-4.19553761D-02 EMin= 4.31469753D-03
 Linear search not attempted -- first point.
 Iteration  1 RMS(Cart)=  0.04223853 RMS(Int)=  0.00270982
 Iteration  2 RMS(Cart)=  0.00270178 RMS(Int)=  0.00015827
 Iteration  3 RMS(Cart)=  0.00000484 RMS(Int)=  0.00015824
 Iteration  4 RMS(Cart)=  0.00000000 RMS(Int)=  0.00015824
 Variable       Old X    -DE/DX   Delta X   Delta X   Delta X     New X
                                 (Linear)    (Quad)   (Total)
    R1        2.88237   0.00130   0.00000   0.00382   0.00382   2.88619
    R2        2.07268  -0.00438   0.00000  -0.01147  -0.01147   2.06121
    R3        2.07034  -0.00491   0.00000  -0.01280  -0.01280   2.05754
    R4        2.07098  -0.00399   0.00000  -0.01041  -0.01041   2.06057
    R5        2.87239  -0.01926   0.00000  -0.05572  -0.05572   2.81667
    R6        2.78277  -0.00258   0.00000  -0.00651  -0.00651   2.77626
    R7        2.07011  -0.00413   0.00000  -0.01075  -0.01075   2.05936
    R8        2.38287  -0.18061   0.00000  -0.21628  -0.21628   2.16659
    R9        1.93034  -0.00504   0.00000  -0.01043  -0.01043   1.91991
   R10        1.92938  -0.00452   0.00000  -0.00934  -0.00934   1.92003
    A1        1.94817  -0.00165   0.00000  -0.00813  -0.00826   1.93991
    A2        1.93937  -0.00580   0.00000  -0.03082  -0.03094   1.90843
    A3        1.93368   0.00127   0.00000   0.00837   0.00840   1.94208
    A4        1.88512   0.00310   0.00000   0.01154   0.01127   1.89638
    A5        1.87347   0.00114   0.00000   0.00964   0.00966   1.88312
    A6        1.88119   0.00234   0.00000   0.01148   0.01152   1.89271
    A7        1.91480  -0.00190   0.00000  -0.00233  -0.00270   1.91210
    A8        1.90395   0.00660   0.00000   0.03262   0.03235   1.93630
    A9        1.90864  -0.00002   0.00000   0.00283   0.00281   1.91145
   A10        1.94367   0.00018   0.00000   0.00850   0.00823   1.95189
   A11        1.89785  -0.00227   0.00000  -0.03138  -0.03140   1.86644
   A12        1.89458  -0.00263   0.00000  -0.01059  -0.01073   1.88386
   A13        1.90303   0.00484   0.00000   0.02890   0.02865   1.93167
   A14        1.90539   0.00128   0.00000   0.01128   0.01102   1.91641
   A15        1.84162  -0.00043   0.00000   0.00868   0.00816   1.84979
   A16        3.14160   0.00263   0.00000   0.03406   0.03406   3.17566
   A17        3.14159  -0.00232   0.00000  -0.03007  -0.03007   3.11152
    D1       -1.04389  -0.00330   0.00000  -0.03336  -0.03330  -1.07719
    D2        1.08958  -0.00006   0.00000  -0.00338  -0.00333   1.08626
    D3       -3.12395   0.00063   0.00000   0.00465   0.00477  -3.11918
    D4        3.13378  -0.00213   0.00000  -0.02126  -0.02137   3.11241
    D5       -1.01594   0.00111   0.00000   0.00871   0.00861  -1.00733
    D6        1.05371   0.00180   0.00000   0.01675   0.01671   1.07042
    D7        1.04299  -0.00210   0.00000  -0.02094  -0.02096   1.02203
    D8       -3.10673   0.00115   0.00000   0.00903   0.00902  -3.09771
    D9       -1.03708   0.00184   0.00000   0.01707   0.01712  -1.01997
   D10       -3.09971  -0.00145   0.00000  -0.02052  -0.02081  -3.12053
   D11       -1.09595   0.00136   0.00000   0.01157   0.01156  -1.08439
   D12       -0.98373   0.00068   0.00000   0.00379   0.00376  -0.97997
   D13        1.02004   0.00349   0.00000   0.03588   0.03613   1.05617
   D14        1.10506  -0.00370   0.00000  -0.03657  -0.03667   1.06839
   D15        3.10883  -0.00089   0.00000  -0.00448  -0.00430   3.10453
         Item               Value     Threshold  Converged?
 Maximum Force            0.180615     0.000450     NO 
 RMS     Force            0.028172     0.000300     NO 
 Maximum Displacement     0.182395     0.001800     NO 
 RMS     Displacement     0.044425     0.001200     NO 
 Predicted change in Energy=-2.231190D-02
 GradGradGradGradGradGradGradGradGradGradGradGradGradGradGradGradGradGrad

                          Input orientation:                          
 ---------------------------------------------------------------------
 Center     Atomic      Atomic             Coordinates (Angstroms)
 Number     Number       Type             X           Y           Z
 ---------------------------------------------------------------------
      1          6           0        0.934807   -0.048977   -0.032919
      2          6           0        0.406699    1.376075    0.118706
      3          6           0        0.926517    2.221718   -0.993190
      4          7           0        1.281437    2.882046   -1.860651
      5          7           0       -1.061312    1.388875    0.174631
      6          1           0        0.593205   -0.498012   -0.966409
      7          1           0        0.577277   -0.656332    0.797011
      8          1           0        2.025025   -0.069200   -0.030648
      9          1           0        0.781687    1.806490    1.046994
     10          1           0       -1.408943    2.340090    0.255538
     11          1           0       -1.442050    1.024778   -0.694164
 ---------------------------------------------------------------------
                    Distance matrix (angstroms):
                    1          2          3          4          5
     1  C    0.000000
     2  C    1.527305   0.000000
     3  C    2.465410   1.490516   0.000000
     4  N    3.471549   2.636469   1.146511   0.000000
     5  N    2.468803   1.469132   2.451306   3.443893   0.000000
     6  H    1.090747   2.173583   2.740209   3.563443   2.756763
     7  H    1.088803   2.149389   3.407340   4.480974   2.693549
     8  H    1.090408   2.174880   2.716894   3.551293   3.419590
     9  H    2.152305   1.089767   2.087042   3.140218   2.081362
    10  H    3.359168   2.060244   2.650983   3.465562   1.015974
    11  H    2.690659   2.049888   2.670617   3.496786   1.016038
                    6          7          8          9         10
     6  H    0.000000
     7  H    1.770584   0.000000
     8  H    1.763416   1.767970   0.000000
     9  H    3.065950   2.483902   2.495079   0.000000
    10  H    3.681925   3.635493   4.204606   2.389559   0.000000
    11  H    2.556418   3.021162   3.695626   2.930480   1.622675
                   11
    11  H    0.000000
 Stoichiometry    C3H6N2
 Framework group  C1[X(C3H6N2)]
 Deg. of freedom    27
 Full point group                 C1      NOp   1
 Largest Abelian subgroup         C1      NOp   1
 Largest concise Abelian subgroup C1      NOp   1
                         Standard orientation:                         
 ---------------------------------------------------------------------
 Center     Atomic      Atomic             Coordinates (Angstroms)
 Number     Number       Type             X           Y           Z
 ---------------------------------------------------------------------
      1          6           0       -1.128145   -1.175529   -0.141762
      2          6           0       -0.391029    0.043688    0.408538
      3          6           0        1.062823   -0.071414    0.100799
      4          7           0        2.178507   -0.118457   -0.159054
      5          7           0       -0.964972    1.287794   -0.121687
      6          1           0       -1.032021   -1.236999   -1.226524
      7          1           0       -2.184761   -1.102465    0.110659
      8          1           0       -0.735266   -2.100066    0.282345
      9          1           0       -0.484967    0.066647    1.494006
     10          1           0       -0.459230    2.095159    0.231284
     11          1           0       -0.860389    1.311900   -1.132040
 ---------------------------------------------------------------------
 Rotational constants (GHZ):           8.2291894           4.0235929           2.9593550
 Standard basis: 6-311++G(2df,2p) (5D, 7F)
 There are   255 symmetry adapted cartesian basis functions of A   symmetry.
 There are   230 symmetry adapted basis functions of A   symmetry.
   230 basis functions,   332 primitive gaussians,   255 cartesian basis functions
    19 alpha electrons       19 beta electrons
       nuclear repulsion energy       160.0885323221 Hartrees.
 NAtoms=   11 NActive=   11 NUniq=   11 SFac= 1.00D+00 NAtFMM=   60 NAOKFM=F Big=F
 Integral buffers will be    131072 words long.
 Raffenetti 2 integral format.
 Two-electron integral symmetry is turned on.
 ------------------------------------------------------------------------------
 Polarizable Continuum Model (PCM)
 =================================
 Model                : PCM.
 Atomic radii         : UFF (Universal Force Field).
 Polarization charges : Total charges.
 Charge compensation  : None.
 Solution method      : On-the-fly selection.
 Cavity type          : Scaled VdW (van der Waals Surface) (Alpha=1.100).
 Cavity algorithm     : GePol (No added spheres)
                        Default sphere list used, NSphG=   11.
                        Lebedev-Laikov grids with approx.  5.0 points / Ang**2.
                        Smoothing algorithm: York/Karplus (Gamma=1.0000).
                        Polarization charges: spherical gaussians, with
                                              point-specific exponents (IZeta= 3).
                        Self-potential: point-specific (ISelfS= 7).
                        Self-field    : sphere-specific E.n sum rule (ISelfD= 2).
 1st derivatives      : Analytical E(r).r(x)/FMM algorithm (CHGder, D1EAlg=3).
                        Cavity 1st derivative terms included.
 Solvent              : Water, Eps=  78.355300 Eps(inf)=   1.777849
 ------------------------------------------------------------------------------
 Spheres list:
 ISph  on   Nord     Re0    Alpha      Xe            Ye            Ze
    1   C      1    1.9255  1.100     -1.128145     -1.175529     -0.141762
    2   C      2    1.9255  1.100     -0.391029      0.043688      0.408538
    3   C      3    1.9255  1.100      1.062823     -0.071414      0.100799
    4   N      4    1.8300  1.100      2.178507     -0.118457     -0.159054
    5   N      5    1.8300  1.100     -0.964972      1.287794     -0.121687
    6   H      6    1.4430  1.100     -1.032021     -1.236999     -1.226524
    7   H      7    1.4430  1.100     -2.184761     -1.102465      0.110659
    8   H      8    1.4430  1.100     -0.735266     -2.100066      0.282345
    9   H      9    1.4430  1.100     -0.484967      0.066647      1.494006
   10   H     10    1.4430  1.100     -0.459230      2.095159      0.231284
   11   H     11    1.4430  1.100     -0.860389      1.311900     -1.132040
 ------------------------------------------------------------------------------
 One-electron integrals computed using PRISM.
 NBasis=   230 RedAO= T EigKep=  1.62D-05  NBF=   230
 NBsUse=   230 1.00D-06 EigRej= -1.00D+00 NBFU=   230
 Initial guess from the checkpoint file:  "2-aminopropanenitrile_298K.chk"
 B after Tr=     0.000000   -0.000000    0.000000
         Rot=    0.999969   -0.001296   -0.003292    0.007071 Ang=  -0.91 deg.
 ExpMin= 3.60D-02 ExpMax= 6.29D+03 ExpMxC= 9.49D+02 IAcc=3 IRadAn=         5 AccDes= 0.00D+00
 Harris functional with IExCor=  402 and IRadAn=       5 diagonalized for initial guess.
 HarFok:  IExCor=  402 AccDes= 0.00D+00 IRadAn=         5 IDoV= 1 UseB2=F ITyADJ=14
 ICtDFT=  3500011 ScaDFX=  1.000000  1.000000  1.000000  1.000000
 FoFCou: FMM=F IPFlag=           0 FMFlag=      100000 FMFlg1=           0
         NFxFlg=           0 DoJE=T BraDBF=F KetDBF=T FulRan=T
         wScrn=  0.000000 ICntrl=       500 IOpCl=  0 I1Cent=   200000004 NGrid=           0
         NMat0=    1 NMatS0=      1 NMatT0=    0 NMatD0=    1 NMtDS0=    0 NMtDT0=    0
 Petite list used in FoFCou.
 Keep R1 ints in memory in canonical form, NReq=370211762.
 Requested convergence on RMS density matrix=1.00D-08 within 128 cycles.
 Requested convergence on MAX density matrix=1.00D-06.
 Requested convergence on             energy=1.00D-06.
 No special actions if energy rises.
 Inv3:  Mode=1 IEnd=     3054243.
 Iteration    1 A*A^-1 deviation from unit magnitude is 2.89D-15 for    192.
 Iteration    1 A*A^-1 deviation from orthogonality  is 2.66D-15 for    774    190.
 Iteration    1 A^-1*A deviation from unit magnitude is 2.89D-15 for    192.
 Iteration    1 A^-1*A deviation from orthogonality  is 1.96D-15 for    920    305.
 Error on total polarization charges =  0.01252
 SCF Done:  E(RB3LYP) =  -227.508883442     A.U. after   11 cycles
            NFock= 11  Conv=0.29D-08     -V/T= 2.0044
 D1PCM: PCM CHGder 1st derivatives, ID1Alg=3 FixD1E=F DoIter=F DoCFld=F I1PDM=0.
 Calling FoFJK, ICntrl=      2127 FMM=F ISym2X=0 I1Cent= 0 IOpClX= 0 NMat=1 NMatS=1 NMatT=0.
 ***** Axes restored to original set *****
 -------------------------------------------------------------------
 Center     Atomic                   Forces (Hartrees/Bohr)
 Number     Number              X              Y              Z
 -------------------------------------------------------------------
      1        6           0.002184541   -0.003357719    0.000694109
      2        6          -0.002368088    0.002005611   -0.005954853
      3        6          -0.004605161   -0.007437571    0.013219876
      4        7           0.003872841    0.006311755   -0.008735078
      5        7           0.001812913    0.002211578   -0.002936094
      6        1          -0.000717935    0.000707342    0.000594618
      7        1          -0.000375450    0.000703045   -0.000139874
      8        1          -0.001090458    0.000967056    0.000133593
      9        1           0.000437252    0.000473402   -0.000080374
     10        1           0.000800509   -0.001603595    0.001702959
     11        1           0.000049037   -0.000980904    0.001501119
 -------------------------------------------------------------------
 Cartesian Forces:  Max     0.013219876 RMS     0.003792994

 GradGradGradGradGradGradGradGradGradGradGradGradGradGradGradGradGradGrad
 Berny optimization.
 Using GEDIIS/GDIIS optimizer.
 FormGI is forming the generalized inverse of G from B-inverse, IUseBI=4.
 Internal  Forces:  Max     0.011443332 RMS     0.002081786
 Search for a local minimum.
 Step number   2 out of a maximum of   52
 All quantities printed in internal units (Hartrees-Bohrs-Radians)
 Mixed Optimization -- RFO/linear search
 Update second derivatives using D2CorX and points    1    2
 DE= -2.28D-02 DEPred=-2.23D-02 R= 1.02D+00
 TightC=F SS=  1.41D+00  RLast= 2.52D-01 DXNew= 5.0454D-01 7.5552D-01
 Trust test= 1.02D+00 RLast= 2.52D-01 DXMaxT set to 5.05D-01
 ITU=  1  0
 Use linear search instead of GDIIS.
     Eigenvalues ---    0.00431   0.00732   0.03531   0.03549   0.04270
     Eigenvalues ---    0.05214   0.05554   0.05729   0.05739   0.10059
     Eigenvalues ---    0.15975   0.16000   0.16000   0.16000   0.16038
     Eigenvalues ---    0.17802   0.23421   0.29855   0.30141   0.34030
     Eigenvalues ---    0.34123   0.34175   0.34198   0.35404   0.44063
     Eigenvalues ---    0.44172   0.88529
 RFO step:  Lambda=-5.73841021D-04 EMin= 4.31482409D-03
 Quartic linear search produced a step of -0.03204.
 Iteration  1 RMS(Cart)=  0.01871070 RMS(Int)=  0.00029067
 Iteration  2 RMS(Cart)=  0.00031255 RMS(Int)=  0.00010028
 Iteration  3 RMS(Cart)=  0.00000005 RMS(Int)=  0.00010028
 Variable       Old X    -DE/DX   Delta X   Delta X   Delta X     New X
                                 (Linear)    (Quad)   (Total)
    R1        2.88619   0.00078  -0.00012   0.00278   0.00266   2.88885
    R2        2.06121  -0.00058   0.00037  -0.00240  -0.00204   2.05918
    R3        2.05754  -0.00037   0.00041  -0.00190  -0.00149   2.05605
    R4        2.06057  -0.00110   0.00033  -0.00379  -0.00346   2.05711
    R5        2.81667  -0.00424   0.00179  -0.01733  -0.01554   2.80112
    R6        2.77626  -0.00265   0.00021  -0.00763  -0.00743   2.76883
    R7        2.05936   0.00027   0.00034   0.00006   0.00040   2.05976
    R8        2.16659   0.01144   0.00693   0.00339   0.01032   2.17692
    R9        1.91991  -0.00164   0.00033  -0.00422  -0.00388   1.91603
   R10        1.92003  -0.00094   0.00030  -0.00261  -0.00231   1.91772
    A1        1.93991  -0.00080   0.00026  -0.00579  -0.00554   1.93437
    A2        1.90843  -0.00068   0.00099  -0.00837  -0.00741   1.90103
    A3        1.94208  -0.00096  -0.00027  -0.00355  -0.00382   1.93826
    A4        1.89638   0.00054  -0.00036   0.00157   0.00117   1.89755
    A5        1.88312   0.00111  -0.00031   0.00997   0.00966   1.89278
    A6        1.89271   0.00089  -0.00037   0.00681   0.00642   1.89913
    A7        1.91210   0.00118   0.00009   0.01219   0.01213   1.92423
    A8        1.93630  -0.00103  -0.00104   0.00454   0.00339   1.93969
    A9        1.91145  -0.00018  -0.00009  -0.00677  -0.00684   1.90461
   A10        1.95189   0.00094  -0.00026   0.01399   0.01357   1.96546
   A11        1.86644  -0.00110   0.00101  -0.02026  -0.01918   1.84726
   A12        1.88386   0.00015   0.00034  -0.00534  -0.00497   1.87889
   A13        1.93167   0.00004  -0.00092   0.01143   0.01030   1.94197
   A14        1.91641   0.00102  -0.00035   0.01577   0.01521   1.93161
   A15        1.84979   0.00077  -0.00026   0.02266   0.02199   1.87177
   A16        3.17566  -0.00095  -0.00109  -0.01490  -0.01599   3.15967
   A17        3.11152  -0.00003   0.00096  -0.01009  -0.00913   3.10239
    D1       -1.07719  -0.00093   0.00107  -0.04182  -0.04079  -1.11797
    D2        1.08626   0.00039   0.00011  -0.01238  -0.01223   1.07403
    D3       -3.11918  -0.00018  -0.00015  -0.02047  -0.02060  -3.13979
    D4        3.11241  -0.00065   0.00068  -0.03470  -0.03406   3.07835
    D5       -1.00733   0.00066  -0.00028  -0.00526  -0.00551  -1.01284
    D6        1.07042   0.00009  -0.00054  -0.01335  -0.01388   1.05654
    D7        1.02203  -0.00071   0.00067  -0.03550  -0.03487   0.98716
    D8       -3.09771   0.00060  -0.00029  -0.00606  -0.00632  -3.10403
    D9       -1.01997   0.00003  -0.00055  -0.01414  -0.01469  -1.03465
   D10       -3.12053  -0.00162   0.00067  -0.04911  -0.04859   3.11406
   D11       -1.08439  -0.00004  -0.00037  -0.00514  -0.00543  -1.08982
   D12       -0.97997  -0.00017  -0.00012  -0.02016  -0.02033  -1.00030
   D13        1.05617   0.00141  -0.00116   0.02382   0.02283   1.07900
   D14        1.06839  -0.00088   0.00118  -0.04017  -0.03912   1.02927
   D15        3.10453   0.00070   0.00014   0.00381   0.00404   3.10857
         Item               Value     Threshold  Converged?
 Maximum Force            0.011443     0.000450     NO 
 RMS     Force            0.002082     0.000300     NO 
 Maximum Displacement     0.057462     0.001800     NO 
 RMS     Displacement     0.018654     0.001200     NO 
 Predicted change in Energy=-2.675226D-04
 GradGradGradGradGradGradGradGradGradGradGradGradGradGradGradGradGradGrad

                          Input orientation:                          
 ---------------------------------------------------------------------
 Center     Atomic      Atomic             Coordinates (Angstroms)
 Number     Number       Type             X           Y           Z
 ---------------------------------------------------------------------
      1          6           0        0.936541   -0.051069   -0.035099
      2          6           0        0.402345    1.374693    0.101999
      3          6           0        0.934029    2.228679   -0.986673
      4          7           0        1.311845    2.886471   -1.853628
      5          7           0       -1.061510    1.386777    0.163627
      6          1           0        0.580666   -0.511289   -0.956472
      7          1           0        0.585770   -0.641888    0.808509
      8          1           0        2.025038   -0.061812   -0.042756
      9          1           0        0.775811    1.808339    1.029645
     10          1           0       -1.416909    2.329153    0.280455
     11          1           0       -1.459275    1.019495   -0.694707
 ---------------------------------------------------------------------
                    Distance matrix (angstroms):
                    1          2          3          4          5
     1  C    0.000000
     2  C    1.528711   0.000000
     3  C    2.470374   1.482290   0.000000
     4  N    3.475204   2.633844   1.151975   0.000000
     5  N    2.469636   1.465202   2.452379   3.457052   0.000000
     6  H    1.089669   2.170043   2.762825   3.589468   2.748457
     7  H    1.088017   2.144621   3.403544   4.479226   2.691633
     8  H    1.088577   2.172011   2.706959   3.532743   3.415813
     9  H    2.148700   1.089979   2.065734   3.124574   2.074476
    10  H    3.362107   2.062166   2.672568   3.508705   1.013918
    11  H    2.705757   2.055854   2.697271   3.536637   1.014815
                    6          7          8          9         10
     6  H    0.000000
     7  H    1.769813   0.000000
     8  H    1.767234   1.769924   0.000000
     9  H    3.059970   2.467515   2.491601   0.000000
    10  H    3.686246   3.621692   4.203353   2.374985   0.000000
    11  H    2.563821   3.033490   3.706035   2.931088   1.633384
                   11
    11  H    0.000000
 Stoichiometry    C3H6N2
 Framework group  C1[X(C3H6N2)]
 Deg. of freedom    27
 Full point group                 C1      NOp   1
 Largest Abelian subgroup         C1      NOp   1
 Largest concise Abelian subgroup C1      NOp   1
                         Standard orientation:                         
 ---------------------------------------------------------------------
 Center     Atomic      Atomic             Coordinates (Angstroms)
 Number     Number       Type             X           Y           Z
 ---------------------------------------------------------------------
      1          6           0       -1.117420   -1.188409   -0.137278
      2          6           0       -0.384803    0.042892    0.395760
      3          6           0        1.064670   -0.055172    0.101490
      4          7           0        2.185252   -0.107271   -0.160476
      5          7           0       -0.982096    1.277455   -0.119907
      6          1           0       -1.051056   -1.238646   -1.223763
      7          1           0       -2.166006   -1.125156    0.145998
      8          1           0       -0.696674   -2.103285    0.276214
      9          1           0       -0.466968    0.064752    1.482418
     10          1           0       -0.513966    2.096030    0.252680
     11          1           0       -0.902104    1.319152   -1.130705
 ---------------------------------------------------------------------
 Rotational constants (GHZ):           8.2454244           4.0107948           2.9488337
 Standard basis: 6-311++G(2df,2p) (5D, 7F)
 There are   255 symmetry adapted cartesian basis functions of A   symmetry.
 There are   230 symmetry adapted basis functions of A   symmetry.
   230 basis functions,   332 primitive gaussians,   255 cartesian basis functions
    19 alpha electrons       19 beta electrons
       nuclear repulsion energy       160.0453667008 Hartrees.
 NAtoms=   11 NActive=   11 NUniq=   11 SFac= 1.00D+00 NAtFMM=   60 NAOKFM=F Big=F
 Integral buffers will be    131072 words long.
 Raffenetti 2 integral format.
 Two-electron integral symmetry is turned on.
 ------------------------------------------------------------------------------
 Polarizable Continuum Model (PCM)
 =================================
 Model                : PCM.
 Atomic radii         : UFF (Universal Force Field).
 Polarization charges : Total charges.
 Charge compensation  : None.
 Solution method      : On-the-fly selection.
 Cavity type          : Scaled VdW (van der Waals Surface) (Alpha=1.100).
 Cavity algorithm     : GePol (No added spheres)
                        Default sphere list used, NSphG=   11.
                        Lebedev-Laikov grids with approx.  5.0 points / Ang**2.
                        Smoothing algorithm: York/Karplus (Gamma=1.0000).
                        Polarization charges: spherical gaussians, with
                                              point-specific exponents (IZeta= 3).
                        Self-potential: point-specific (ISelfS= 7).
                        Self-field    : sphere-specific E.n sum rule (ISelfD= 2).
 1st derivatives      : Analytical E(r).r(x)/FMM algorithm (CHGder, D1EAlg=3).
                        Cavity 1st derivative terms included.
 Solvent              : Water, Eps=  78.355300 Eps(inf)=   1.777849
 ------------------------------------------------------------------------------
 Spheres list:
 ISph  on   Nord     Re0    Alpha      Xe            Ye            Ze
    1   C      1    1.9255  1.100     -1.117420     -1.188409     -0.137278
    2   C      2    1.9255  1.100     -0.384803      0.042892      0.395760
    3   C      3    1.9255  1.100      1.064670     -0.055172      0.101490
    4   N      4    1.8300  1.100      2.185252     -0.107271     -0.160476
    5   N      5    1.8300  1.100     -0.982096      1.277455     -0.119907
    6   H      6    1.4430  1.100     -1.051056     -1.238646     -1.223763
    7   H      7    1.4430  1.100     -2.166006     -1.125156      0.145998
    8   H      8    1.4430  1.100     -0.696674     -2.103285      0.276214
    9   H      9    1.4430  1.100     -0.466968      0.064752      1.482418
   10   H     10    1.4430  1.100     -0.513966      2.096030      0.252680
   11   H     11    1.4430  1.100     -0.902104      1.319152     -1.130705
 ------------------------------------------------------------------------------
 One-electron integrals computed using PRISM.
 NBasis=   230 RedAO= T EigKep=  1.61D-05  NBF=   230
 NBsUse=   230 1.00D-06 EigRej= -1.00D+00 NBFU=   230
 Initial guess from the checkpoint file:  "2-aminopropanenitrile_298K.chk"
 B after Tr=     0.000000    0.000000    0.000000
         Rot=    0.999986    0.000059   -0.001605   -0.005005 Ang=   0.60 deg.
 ExpMin= 3.60D-02 ExpMax= 6.29D+03 ExpMxC= 9.49D+02 IAcc=3 IRadAn=         5 AccDes= 0.00D+00
 Harris functional with IExCor=  402 and IRadAn=       5 diagonalized for initial guess.
 HarFok:  IExCor=  402 AccDes= 0.00D+00 IRadAn=         5 IDoV= 1 UseB2=F ITyADJ=14
 ICtDFT=  3500011 ScaDFX=  1.000000  1.000000  1.000000  1.000000
 FoFCou: FMM=F IPFlag=           0 FMFlag=      100000 FMFlg1=           0
         NFxFlg=           0 DoJE=T BraDBF=F KetDBF=T FulRan=T
         wScrn=  0.000000 ICntrl=       500 IOpCl=  0 I1Cent=   200000004 NGrid=           0
         NMat0=    1 NMatS0=      1 NMatT0=    0 NMatD0=    1 NMtDS0=    0 NMtDT0=    0
 Petite list used in FoFCou.
 Keep R1 ints in memory in canonical form, NReq=370211762.
 Requested convergence on RMS density matrix=1.00D-08 within 128 cycles.
 Requested convergence on MAX density matrix=1.00D-06.
 Requested convergence on             energy=1.00D-06.
 No special actions if energy rises.
 Inv3:  Mode=1 IEnd=     3024048.
 Iteration    1 A*A^-1 deviation from unit magnitude is 2.66D-15 for    420.
 Iteration    1 A*A^-1 deviation from orthogonality  is 1.55D-15 for    856    132.
 Iteration    1 A^-1*A deviation from unit magnitude is 2.66D-15 for    420.
 Iteration    1 A^-1*A deviation from orthogonality  is 2.08D-15 for    916    300.
 Error on total polarization charges =  0.01255
 SCF Done:  E(RB3LYP) =  -227.509167555     A.U. after   10 cycles
            NFock= 10  Conv=0.35D-08     -V/T= 2.0044
 D1PCM: PCM CHGder 1st derivatives, ID1Alg=3 FixD1E=F DoIter=F DoCFld=F I1PDM=0.
 Calling FoFJK, ICntrl=      2127 FMM=F ISym2X=0 I1Cent= 0 IOpClX= 0 NMat=1 NMatS=1 NMatT=0.
 ***** Axes restored to original set *****
 -------------------------------------------------------------------
 Center     Atomic                   Forces (Hartrees/Bohr)
 Number     Number              X              Y              Z
 -------------------------------------------------------------------
      1        6           0.000258605   -0.001053085    0.000239555
      2        6          -0.001750401    0.002176632   -0.000301412
      3        6           0.000033378   -0.000430833   -0.002127658
      4        7          -0.000277002   -0.000319740    0.001480958
      5        7           0.001288553    0.000046226   -0.001286417
      6        1          -0.000144124    0.000038204   -0.000067078
      7        1          -0.000120541    0.000128527    0.000045875
      8        1          -0.000136651    0.000226185   -0.000102394
      9        1           0.000148460   -0.000246698    0.001094992
     10        1           0.000433198   -0.000710381    0.000346021
     11        1           0.000266526    0.000144963    0.000677558
 -------------------------------------------------------------------
 Cartesian Forces:  Max     0.002176632 RMS     0.000822307

 GradGradGradGradGradGradGradGradGradGradGradGradGradGradGradGradGradGrad
 Berny optimization.
 Using GEDIIS/GDIIS optimizer.
 FormGI is forming the generalized inverse of G from B-inverse, IUseBI=4.
 Internal  Forces:  Max     0.001991387 RMS     0.000519215
 Search for a local minimum.
 Step number   3 out of a maximum of   52
 All quantities printed in internal units (Hartrees-Bohrs-Radians)
 Mixed Optimization -- En-DIIS/RFO-DIIS
 Update second derivatives using D2CorX and points    1    2    3
 DE= -2.84D-04 DEPred=-2.68D-04 R= 1.06D+00
 TightC=F SS=  1.41D+00  RLast= 1.12D-01 DXNew= 8.4853D-01 3.3664D-01
 Trust test= 1.06D+00 RLast= 1.12D-01 DXMaxT set to 5.05D-01
 ITU=  1  1  0
 Use linear search instead of GDIIS.
     Eigenvalues ---    0.00418   0.00709   0.03165   0.03554   0.04064
     Eigenvalues ---    0.05103   0.05584   0.05791   0.06026   0.10126
     Eigenvalues ---    0.15464   0.16000   0.16000   0.16023   0.16040
     Eigenvalues ---    0.18020   0.23215   0.28593   0.30045   0.33848
     Eigenvalues ---    0.34070   0.34173   0.34333   0.35088   0.43675
     Eigenvalues ---    0.44169   1.01023
 RFO step:  Lambda=-9.15498098D-05 EMin= 4.17622571D-03
 Quartic linear search produced a step of  0.00867.
 Iteration  1 RMS(Cart)=  0.01005394 RMS(Int)=  0.00011399
 Iteration  2 RMS(Cart)=  0.00012070 RMS(Int)=  0.00000928
 Iteration  3 RMS(Cart)=  0.00000002 RMS(Int)=  0.00000928
 Variable       Old X    -DE/DX   Delta X   Delta X   Delta X     New X
                                 (Linear)    (Quad)   (Total)
    R1        2.88885   0.00055   0.00002   0.00229   0.00231   2.89116
    R2        2.05918   0.00008  -0.00002  -0.00011  -0.00012   2.05905
    R3        2.05605   0.00000  -0.00001  -0.00026  -0.00027   2.05578
    R4        2.05711  -0.00014  -0.00003  -0.00098  -0.00101   2.05610
    R5        2.80112  -0.00004  -0.00013  -0.00269  -0.00282   2.79830
    R6        2.76883  -0.00199  -0.00006  -0.00687  -0.00693   2.76190
    R7        2.05976   0.00088   0.00000   0.00265   0.00266   2.06242
    R8        2.17692  -0.00139   0.00009  -0.00085  -0.00076   2.17616
    R9        1.91603  -0.00078  -0.00003  -0.00242  -0.00246   1.91357
   R10        1.91772  -0.00072  -0.00002  -0.00204  -0.00206   1.91566
    A1        1.93437  -0.00009  -0.00005  -0.00158  -0.00163   1.93273
    A2        1.90103  -0.00017  -0.00006  -0.00222  -0.00229   1.89873
    A3        1.93826  -0.00025  -0.00003  -0.00209  -0.00212   1.93614
    A4        1.89755   0.00012   0.00001   0.00086   0.00086   1.89842
    A5        1.89278   0.00016   0.00008   0.00234   0.00242   1.89520
    A6        1.89913   0.00025   0.00006   0.00286   0.00292   1.90205
    A7        1.92423   0.00006   0.00011   0.00145   0.00156   1.92579
    A8        1.93969  -0.00064   0.00003  -0.00409  -0.00407   1.93562
    A9        1.90461  -0.00019  -0.00006  -0.00417  -0.00424   1.90037
   A10        1.96546   0.00022   0.00012   0.00267   0.00279   1.96825
   A11        1.84726   0.00034  -0.00017   0.00445   0.00429   1.85155
   A12        1.87889   0.00026  -0.00004  -0.00019  -0.00025   1.87864
   A13        1.94197  -0.00017   0.00009   0.00173   0.00180   1.94377
   A14        1.93161   0.00014   0.00013   0.00437   0.00448   1.93610
   A15        1.87177   0.00020   0.00019   0.00688   0.00704   1.87881
   A16        3.15967   0.00050  -0.00014   0.01185   0.01172   3.17139
   A17        3.10239   0.00108  -0.00008   0.02972   0.02964   3.13203
    D1       -1.11797   0.00013  -0.00035  -0.00999  -0.01034  -1.12832
    D2        1.07403  -0.00001  -0.00011  -0.00844  -0.00855   1.06547
    D3       -3.13979  -0.00020  -0.00018  -0.01377  -0.01394   3.12946
    D4        3.07835   0.00014  -0.00030  -0.00867  -0.00897   3.06938
    D5       -1.01284   0.00001  -0.00005  -0.00712  -0.00718  -1.02001
    D6        1.05654  -0.00019  -0.00012  -0.01245  -0.01257   1.04397
    D7        0.98716   0.00010  -0.00030  -0.00950  -0.00980   0.97735
    D8       -3.10403  -0.00003  -0.00005  -0.00795  -0.00801  -3.11204
    D9       -1.03465  -0.00023  -0.00013  -0.01328  -0.01340  -1.04806
   D10        3.11406  -0.00027  -0.00042  -0.02303  -0.02346   3.09060
   D11       -1.08982  -0.00004  -0.00005  -0.01041  -0.01045  -1.10027
   D12       -1.00030  -0.00052  -0.00018  -0.02225  -0.02244  -1.02274
   D13        1.07900  -0.00028   0.00020  -0.00963  -0.00943   1.06957
   D14        1.02927   0.00018  -0.00034  -0.01544  -0.01579   1.01348
   D15        3.10857   0.00041   0.00004  -0.00282  -0.00277   3.10580
         Item               Value     Threshold  Converged?
 Maximum Force            0.001991     0.000450     NO 
 RMS     Force            0.000519     0.000300     NO 
 Maximum Displacement     0.027192     0.001800     NO 
 RMS     Displacement     0.010048     0.001200     NO 
 Predicted change in Energy=-4.592530D-05
 GradGradGradGradGradGradGradGradGradGradGradGradGradGradGradGradGradGrad

                          Input orientation:                          
 ---------------------------------------------------------------------
 Center     Atomic      Atomic             Coordinates (Angstroms)
 Number     Number       Type             X           Y           Z
 ---------------------------------------------------------------------
      1          6           0        0.935181   -0.052668   -0.033564
      2          6           0        0.402214    1.375614    0.095503
      3          6           0        0.934826    2.224225   -0.994883
      4          7           0        1.317843    2.900860   -1.844345
      5          7           0       -1.058010    1.383749    0.156844
      6          1           0        0.570691   -0.519294   -0.948245
      7          1           0        0.588866   -0.634193    0.818119
      8          1           0        2.023070   -0.061680   -0.049348
      9          1           0        0.774681    1.808933    1.025355
     10          1           0       -1.416498    2.321355    0.290170
     11          1           0       -1.458515    1.020648   -0.700706
 ---------------------------------------------------------------------
                    Distance matrix (angstroms):
                    1          2          3          4          5
     1  C    0.000000
     2  C    1.529935   0.000000
     3  C    2.471512   1.480796   0.000000
     4  N    3.485496   2.632064   1.151574   0.000000
     5  N    2.464216   1.461534   2.450361   3.457030   0.000000
     6  H    1.089603   2.169901   2.767971   3.613681   2.737784
     7  H    1.087874   2.143907   3.402530   4.485167   2.687299
     8  H    1.088040   2.171168   2.702530   3.534968   3.409521
     9  H    2.147703   1.091385   2.068689   3.118093   2.072160
    10  H    3.357258   2.059134   2.681328   3.516902   1.012618
    11  H    2.706818   2.054814   2.695035   3.542777   1.013726
                    6          7          8          9         10
     6  H    0.000000
     7  H    1.770191   0.000000
     8  H    1.768285   1.771217   0.000000
     9  H    3.058979   2.458930   2.492520   0.000000
    10  H    3.681288   3.610468   4.198185   2.367348   0.000000
    11  H    2.559369   3.039259   3.703665   2.930502   1.635678
                   11
    11  H    0.000000
 Stoichiometry    C3H6N2
 Framework group  C1[X(C3H6N2)]
 Deg. of freedom    27
 Full point group                 C1      NOp   1
 Largest Abelian subgroup         C1      NOp   1
 Largest concise Abelian subgroup C1      NOp   1
                         Standard orientation:                         
 ---------------------------------------------------------------------
 Center     Atomic      Atomic             Coordinates (Angstroms)
 Number     Number       Type             X           Y           Z
 ---------------------------------------------------------------------
      1          6           0       -1.126271   -1.183548   -0.135200
      2          6           0       -0.380747    0.043757    0.392641
      3          6           0        1.064636   -0.061837    0.088544
      4          7           0        2.189420   -0.109058   -0.153850
      5          7           0       -0.977762    1.276129   -0.118158
      6          1           0       -1.076513   -1.226964   -1.222800
      7          1           0       -2.169680   -1.115667    0.165067
      8          1           0       -0.700843   -2.100082    0.268297
      9          1           0       -0.460095    0.064215    1.480945
     10          1           0       -0.519705    2.094192    0.264402
     11          1           0       -0.900474    1.324575   -1.127771
 ---------------------------------------------------------------------
 Rotational constants (GHZ):           8.2902037           4.0013830           2.9457802
 Standard basis: 6-311++G(2df,2p) (5D, 7F)
 There are   255 symmetry adapted cartesian basis functions of A   symmetry.
 There are   230 symmetry adapted basis functions of A   symmetry.
   230 basis functions,   332 primitive gaussians,   255 cartesian basis functions
    19 alpha electrons       19 beta electrons
       nuclear repulsion energy       160.1138167684 Hartrees.
 NAtoms=   11 NActive=   11 NUniq=   11 SFac= 1.00D+00 NAtFMM=   60 NAOKFM=F Big=F
 Integral buffers will be    131072 words long.
 Raffenetti 2 integral format.
 Two-electron integral symmetry is turned on.
 ------------------------------------------------------------------------------
 Polarizable Continuum Model (PCM)
 =================================
 Model                : PCM.
 Atomic radii         : UFF (Universal Force Field).
 Polarization charges : Total charges.
 Charge compensation  : None.
 Solution method      : On-the-fly selection.
 Cavity type          : Scaled VdW (van der Waals Surface) (Alpha=1.100).
 Cavity algorithm     : GePol (No added spheres)
                        Default sphere list used, NSphG=   11.
                        Lebedev-Laikov grids with approx.  5.0 points / Ang**2.
                        Smoothing algorithm: York/Karplus (Gamma=1.0000).
                        Polarization charges: spherical gaussians, with
                                              point-specific exponents (IZeta= 3).
                        Self-potential: point-specific (ISelfS= 7).
                        Self-field    : sphere-specific E.n sum rule (ISelfD= 2).
 1st derivatives      : Analytical E(r).r(x)/FMM algorithm (CHGder, D1EAlg=3).
                        Cavity 1st derivative terms included.
 Solvent              : Water, Eps=  78.355300 Eps(inf)=   1.777849
 ------------------------------------------------------------------------------
 Spheres list:
 ISph  on   Nord     Re0    Alpha      Xe            Ye            Ze
    1   C      1    1.9255  1.100     -1.126271     -1.183548     -0.135200
    2   C      2    1.9255  1.100     -0.380747      0.043757      0.392641
    3   C      3    1.9255  1.100      1.064636     -0.061837      0.088544
    4   N      4    1.8300  1.100      2.189420     -0.109058     -0.153850
    5   N      5    1.8300  1.100     -0.977762      1.276129     -0.118158
    6   H      6    1.4430  1.100     -1.076513     -1.226964     -1.222800
    7   H      7    1.4430  1.100     -2.169680     -1.115667      0.165067
    8   H      8    1.4430  1.100     -0.700843     -2.100082      0.268297
    9   H      9    1.4430  1.100     -0.460095      0.064215      1.480945
   10   H     10    1.4430  1.100     -0.519705      2.094192      0.264402
   11   H     11    1.4430  1.100     -0.900474      1.324575     -1.127771
 ------------------------------------------------------------------------------
 One-electron integrals computed using PRISM.
 NBasis=   230 RedAO= T EigKep=  1.58D-05  NBF=   230
 NBsUse=   230 1.00D-06 EigRej= -1.00D+00 NBFU=   230
 Initial guess from the checkpoint file:  "2-aminopropanenitrile_298K.chk"
 B after Tr=    -0.000000   -0.000000   -0.000000
         Rot=    0.999999   -0.000553   -0.000646    0.001396 Ang=  -0.19 deg.
 ExpMin= 3.60D-02 ExpMax= 6.29D+03 ExpMxC= 9.49D+02 IAcc=3 IRadAn=         5 AccDes= 0.00D+00
 Harris functional with IExCor=  402 and IRadAn=       5 diagonalized for initial guess.
 HarFok:  IExCor=  402 AccDes= 0.00D+00 IRadAn=         5 IDoV= 1 UseB2=F ITyADJ=14
 ICtDFT=  3500011 ScaDFX=  1.000000  1.000000  1.000000  1.000000
 FoFCou: FMM=F IPFlag=           0 FMFlag=      100000 FMFlg1=           0
         NFxFlg=           0 DoJE=T BraDBF=F KetDBF=T FulRan=T
         wScrn=  0.000000 ICntrl=       500 IOpCl=  0 I1Cent=   200000004 NGrid=           0
         NMat0=    1 NMatS0=      1 NMatT0=    0 NMatD0=    1 NMtDS0=    0 NMtDT0=    0
 Petite list used in FoFCou.
 Keep R1 ints in memory in canonical form, NReq=370211762.
 Requested convergence on RMS density matrix=1.00D-08 within 128 cycles.
 Requested convergence on MAX density matrix=1.00D-06.
 Requested convergence on             energy=1.00D-06.
 No special actions if energy rises.
 Inv3:  Mode=1 IEnd=     3000000.
 Iteration    1 A*A^-1 deviation from unit magnitude is 3.33D-15 for    756.
 Iteration    1 A*A^-1 deviation from orthogonality  is 1.95D-15 for    505     98.
 Iteration    1 A^-1*A deviation from unit magnitude is 3.33D-15 for    224.
 Iteration    1 A^-1*A deviation from orthogonality  is 2.12D-15 for    506     94.
 Error on total polarization charges =  0.01256
 SCF Done:  E(RB3LYP) =  -227.509203009     A.U. after    9 cycles
            NFock=  9  Conv=0.94D-08     -V/T= 2.0044
 D1PCM: PCM CHGder 1st derivatives, ID1Alg=3 FixD1E=F DoIter=F DoCFld=F I1PDM=0.
 Calling FoFJK, ICntrl=      2127 FMM=F ISym2X=0 I1Cent= 0 IOpClX= 0 NMat=1 NMatS=1 NMatT=0.
 ***** Axes restored to original set *****
 -------------------------------------------------------------------
 Center     Atomic                   Forces (Hartrees/Bohr)
 Number     Number              X              Y              Z
 -------------------------------------------------------------------
      1        6           0.000026961   -0.000218771    0.000198174
      2        6          -0.000730213   -0.000220463    0.000486421
      3        6           0.000347360    0.001213477   -0.000336221
      4        7          -0.000131430   -0.000603761    0.000107241
      5        7           0.000283023   -0.000136910   -0.000178396
      6        1           0.000019378   -0.000077265   -0.000112878
      7        1           0.000036373   -0.000055530    0.000001878
      8        1           0.000215749   -0.000162010   -0.000113077
      9        1           0.000144714    0.000022647   -0.000098166
     10        1          -0.000140697    0.000073787   -0.000016454
     11        1          -0.000071217    0.000164800    0.000061477
 -------------------------------------------------------------------
 Cartesian Forces:  Max     0.001213477 RMS     0.000318052

 GradGradGradGradGradGradGradGradGradGradGradGradGradGradGradGradGradGrad
 Berny optimization.
 Using GEDIIS/GDIIS optimizer.
 FormGI is forming the generalized inverse of G from B-inverse, IUseBI=4.
 Internal  Forces:  Max     0.000594766 RMS     0.000206672
 Search for a local minimum.
 Step number   4 out of a maximum of   52
 All quantities printed in internal units (Hartrees-Bohrs-Radians)
 Mixed Optimization -- En-DIIS/RFO-DIIS
 Swapping is turned off.
 Update second derivatives using D2CorX and points    1    2    3    4
 DE= -3.55D-05 DEPred=-4.59D-05 R= 7.72D-01
 TightC=F SS=  1.41D+00  RLast= 6.14D-02 DXNew= 8.4853D-01 1.8427D-01
 Trust test= 7.72D-01 RLast= 6.14D-02 DXMaxT set to 5.05D-01
 ITU=  1  1  1  0
     Eigenvalues ---    0.00397   0.00669   0.03294   0.03565   0.04786
     Eigenvalues ---    0.05134   0.05604   0.05815   0.06627   0.09971
     Eigenvalues ---    0.15572   0.15997   0.16005   0.16025   0.16290
     Eigenvalues ---    0.18011   0.23178   0.28116   0.31321   0.33791
     Eigenvalues ---    0.34059   0.34217   0.34349   0.34404   0.43572
     Eigenvalues ---    0.44179   0.97698
 En-DIIS/RFO-DIIS/Sim-DIIS IScMMF=       -3 using points:     4    3
 RFO step:  Lambda=-1.49979955D-05.
 DidBck=F Rises=F RFO-DIIS coefs:    1.07210   -0.07210
 Iteration  1 RMS(Cart)=  0.00403169 RMS(Int)=  0.00002666
 Iteration  2 RMS(Cart)=  0.00002914 RMS(Int)=  0.00000071
 Iteration  3 RMS(Cart)=  0.00000000 RMS(Int)=  0.00000071
 Variable       Old X    -DE/DX   Delta X   Delta X   Delta X     New X
                                 (Linear)    (Quad)   (Total)
    R1        2.89116   0.00058   0.00017   0.00162   0.00179   2.89295
    R2        2.05905   0.00011  -0.00001   0.00030   0.00029   2.05934
    R3        2.05578   0.00002  -0.00002   0.00006   0.00004   2.05583
    R4        2.05610   0.00023  -0.00007   0.00055   0.00047   2.05657
    R5        2.79830   0.00059  -0.00020   0.00170   0.00149   2.79979
    R6        2.76190  -0.00007  -0.00050  -0.00036  -0.00086   2.76104
    R7        2.06242  -0.00003   0.00019   0.00006   0.00025   2.06267
    R8        2.17616  -0.00048  -0.00005  -0.00059  -0.00064   2.17552
    R9        1.91357   0.00011  -0.00018   0.00015  -0.00003   1.91354
   R10        1.91566  -0.00007  -0.00015  -0.00019  -0.00034   1.91532
    A1        1.93273   0.00002  -0.00012  -0.00002  -0.00014   1.93260
    A2        1.89873   0.00006  -0.00017   0.00043   0.00027   1.89900
    A3        1.93614   0.00020  -0.00015   0.00092   0.00077   1.93691
    A4        1.89842  -0.00004   0.00006  -0.00013  -0.00007   1.89835
    A5        1.89520  -0.00015   0.00017  -0.00103  -0.00086   1.89435
    A6        1.90205  -0.00009   0.00021  -0.00020   0.00001   1.90206
    A7        1.92579  -0.00000   0.00011  -0.00028  -0.00017   1.92562
    A8        1.93562   0.00011  -0.00029   0.00030   0.00001   1.93563
    A9        1.90037  -0.00009  -0.00031  -0.00043  -0.00073   1.89964
   A10        1.96825  -0.00008   0.00020  -0.00042  -0.00022   1.96803
   A11        1.85155  -0.00004   0.00031  -0.00035  -0.00004   1.85151
   A12        1.87864   0.00009  -0.00002   0.00118   0.00116   1.87980
   A13        1.94377   0.00014   0.00013   0.00057   0.00070   1.94446
   A14        1.93610   0.00012   0.00032   0.00052   0.00085   1.93694
   A15        1.87881  -0.00015   0.00051  -0.00089  -0.00039   1.87842
   A16        3.17139  -0.00054   0.00084  -0.01166  -0.01081   3.16057
   A17        3.13203  -0.00054   0.00214  -0.01090  -0.00877   3.12326
    D1       -1.12832  -0.00002  -0.00075  -0.00229  -0.00303  -1.13135
    D2        1.06547  -0.00004  -0.00062  -0.00282  -0.00344   1.06203
    D3        3.12946   0.00008  -0.00101  -0.00146  -0.00246   3.12700
    D4        3.06938  -0.00002  -0.00065  -0.00239  -0.00303   3.06635
    D5       -1.02001  -0.00005  -0.00052  -0.00292  -0.00344  -1.02345
    D6        1.04397   0.00007  -0.00091  -0.00156  -0.00246   1.04151
    D7        0.97735  -0.00006  -0.00071  -0.00298  -0.00369   0.97366
    D8       -3.11204  -0.00009  -0.00058  -0.00352  -0.00410  -3.11614
    D9       -1.04806   0.00003  -0.00097  -0.00215  -0.00312  -1.05118
   D10        3.09060  -0.00002  -0.00169  -0.00267  -0.00436   3.08624
   D11       -1.10027  -0.00004  -0.00075  -0.00307  -0.00382  -1.10409
   D12       -1.02274   0.00000  -0.00162  -0.00312  -0.00474  -1.02748
   D13        1.06957  -0.00001  -0.00068  -0.00352  -0.00420   1.06537
   D14        1.01348  -0.00003  -0.00114  -0.00305  -0.00419   1.00930
   D15        3.10580  -0.00005  -0.00020  -0.00345  -0.00364   3.10215
         Item               Value     Threshold  Converged?
 Maximum Force            0.000595     0.000450     NO 
 RMS     Force            0.000207     0.000300     YES
 Maximum Displacement     0.014129     0.001800     NO 
 RMS     Displacement     0.004033     0.001200     NO 
 Predicted change in Energy=-7.500840D-06
 GradGradGradGradGradGradGradGradGradGradGradGradGradGradGradGradGradGrad

                          Input orientation:                          
 ---------------------------------------------------------------------
 Center     Atomic      Atomic             Coordinates (Angstroms)
 Number     Number       Type             X           Y           Z
 ---------------------------------------------------------------------
      1          6           0        0.935767   -0.051861   -0.033775
      2          6           0        0.400768    1.376546    0.096709
      3          6           0        0.933913    2.227420   -0.992725
      4          7           0        1.322376    2.893383   -1.847668
      5          7           0       -1.059091    1.383044    0.156070
      6          1           0        0.570087   -0.518705   -0.948053
      7          1           0        0.591958   -0.634308    0.818321
      8          1           0        2.023868   -0.060169   -0.052324
      9          1           0        0.772760    1.808640    1.027475
     10          1           0       -1.419245    2.319281    0.294326
     11          1           0       -1.458810    1.024279   -0.703458
 ---------------------------------------------------------------------
                    Distance matrix (angstroms):
                    1          2          3          4          5
     1  C    0.000000
     2  C    1.530881   0.000000
     3  C    2.472794   1.481586   0.000000
     4  N    3.480537   2.632633   1.151233   0.000000
     5  N    2.464640   1.461080   2.450462   3.459404   0.000000
     6  H    1.089756   2.170754   2.770482   3.607990   2.736778
     7  H    1.087896   2.144950   3.403867   4.481698   2.689656
     8  H    1.088290   2.172743   2.702854   3.526871   3.410414
     9  H    2.148089   1.091517   2.069433   3.121729   2.072718
    10  H    3.357982   2.059186   2.683708   3.526218   1.012603
    11  H    2.709345   2.054846   2.693761   3.540870   1.013546
                    6          7          8          9         10
     6  H    0.000000
     7  H    1.770288   0.000000
     8  H    1.768068   1.771447   0.000000
[...]
    R3        2.05579   0.00000   0.00000   0.00002   0.00002   2.05581
    R4        2.05679  -0.00002   0.00000  -0.00003  -0.00003   2.05675
    R5        2.80080   0.00001   0.00000   0.00008   0.00008   2.80088
    R6        2.76062  -0.00000   0.00000   0.00003   0.00003   2.76065
    R7        2.06224  -0.00002   0.00000  -0.00005  -0.00005   2.06219
    R8        2.17584  -0.00008   0.00000  -0.00006  -0.00006   2.17577
    R9        1.91379  -0.00000   0.00000   0.00001   0.00001   1.91380
   R10        1.91541   0.00001   0.00000   0.00003   0.00003   1.91544
    A1        1.93243  -0.00000   0.00000  -0.00001  -0.00001   1.93242
    A2        1.89896   0.00002   0.00000   0.00017   0.00017   1.89912
    A3        1.93746  -0.00002   0.00000  -0.00012  -0.00012   1.93734
    A4        1.89849  -0.00001   0.00000  -0.00005  -0.00005   1.89845
    A5        1.89383   0.00001   0.00000   0.00006   0.00006   1.89389
    A6        1.90209  -0.00000   0.00000  -0.00006  -0.00006   1.90204
    A7        1.92396  -0.00002   0.00000  -0.00010  -0.00010   1.92385
    A8        1.93628   0.00001   0.00000   0.00015   0.00015   1.93643
    A9        1.89984   0.00002   0.00000   0.00024   0.00024   1.90008
   A10        1.96816   0.00001   0.00000   0.00004   0.00004   1.96820
   A11        1.85169  -0.00000   0.00000  -0.00012  -0.00012   1.85157
   A12        1.88035  -0.00002   0.00000  -0.00021  -0.00021   1.88014
   A13        1.94485  -0.00003   0.00000  -0.00025  -0.00025   1.94460
   A14        1.93727   0.00001   0.00000   0.00011   0.00011   1.93738
   A15        1.87793   0.00001   0.00000  -0.00003  -0.00003   1.87790
   A16        3.16476   0.00001   0.00000   0.00005   0.00005   3.16481
   A17        3.12051   0.00001   0.00000   0.00016   0.00016   3.12067
    D1       -1.13327  -0.00000   0.00000   0.00034   0.00034  -1.13293
    D2        1.05954   0.00001   0.00000   0.00042   0.00042   1.05996
    D3        3.12567   0.00000   0.00000   0.00041   0.00041   3.12608
    D4        3.06437  -0.00000   0.00000   0.00030   0.00030   3.06468
    D5       -1.02600   0.00000   0.00000   0.00038   0.00038  -1.02562
    D6        1.04014  -0.00000   0.00000   0.00036   0.00036   1.04050
    D7        0.97134  -0.00000   0.00000   0.00034   0.00034   0.97168
    D8       -3.11903   0.00001   0.00000   0.00042   0.00042  -3.11861
    D9       -1.05290  -0.00000   0.00000   0.00040   0.00040  -1.05250
   D10        3.08247   0.00001   0.00000  -0.00126  -0.00126   3.08121
   D11       -1.10800   0.00000   0.00000  -0.00139  -0.00139  -1.10939
   D12       -1.03285  -0.00000   0.00000  -0.00125  -0.00125  -1.03410
   D13        1.05987  -0.00001   0.00000  -0.00138  -0.00138   1.05849
   D14        1.00457  -0.00001   0.00000  -0.00151  -0.00151   1.00307
   D15        3.09729  -0.00001   0.00000  -0.00164  -0.00164   3.09566
         Item               Value     Threshold  Converged?
 Maximum Force            0.000077     0.000450     YES
 RMS     Force            0.000017     0.000300     YES
 Maximum Displacement     0.001901     0.001800     NO 
 RMS     Displacement     0.000541     0.001200     YES
 Predicted change in Energy=-4.579759D-08
                           ----------------------------
                           ! Non-Optimized Parameters !
                           ! (Angstroms and Degrees)  !
 --------------------------                            --------------------------
 ! Name  Definition              Value          Derivative Info.                !
 --------------------------------------------------------------------------------
 ! R1    R(1,2)                  1.531          -DE/DX =    0.0                 !
 ! R2    R(1,6)                  1.0898         -DE/DX =    0.0                 !
 ! R3    R(1,7)                  1.0879         -DE/DX =    0.0                 !
 ! R4    R(1,8)                  1.0884         -DE/DX =    0.0                 !
 ! R5    R(2,3)                  1.4822         -DE/DX =    0.0                 !
 ! R6    R(2,5)                  1.4609         -DE/DX =    0.0                 !
 ! R7    R(2,9)                  1.0913         -DE/DX =    0.0                 !
 ! R8    R(3,4)                  1.1514         -DE/DX =   -0.0001              !
 ! R9    R(5,10)                 1.0127         -DE/DX =    0.0                 !
 ! R10   R(5,11)                 1.0136         -DE/DX =    0.0                 !
 ! A1    A(2,1,6)              110.7195         -DE/DX =    0.0                 !
 ! A2    A(2,1,7)              108.8118         -DE/DX =    0.0                 !
 ! A3    A(2,1,8)              111.0013         -DE/DX =    0.0                 !
 ! A4    A(6,1,7)              108.773          -DE/DX =    0.0                 !
 ! A5    A(6,1,8)              108.5119         -DE/DX =    0.0                 !
 ! A6    A(7,1,8)              108.9786         -DE/DX =    0.0                 !
 ! A7    A(1,2,3)              110.2287         -DE/DX =    0.0                 !
 ! A8    A(1,2,5)              110.9491         -DE/DX =    0.0                 !
 ! A9    A(1,2,9)              108.8663         -DE/DX =    0.0                 !
 ! A10   A(3,2,5)              112.7696         -DE/DX =    0.0                 !
 ! A11   A(3,2,9)              106.0873         -DE/DX =    0.0                 !
 ! A12   A(5,2,9)              107.7241         -DE/DX =    0.0                 !
 ! A13   A(2,5,10)             111.4174         -DE/DX =    0.0                 !
 ! A14   A(2,5,11)             111.0036         -DE/DX =    0.0                 !
 ! A15   A(10,5,11)            107.5959         -DE/DX =    0.0                 !
 ! A16   L(2,3,4,8,-1)         181.3304         -DE/DX =    0.0                 !
 ! A17   L(2,3,4,8,-2)         178.8013         -DE/DX =    0.0                 !
 ! D1    D(6,1,2,3)            -64.9121         -DE/DX =    0.0                 !
 ! D2    D(6,1,2,5)             60.7314         -DE/DX =    0.0                 !
 ! D3    D(6,1,2,9)            179.1112         -DE/DX =    0.0                 !
 ! D4    D(7,1,2,3)            175.5929         -DE/DX =    0.0                 !
 ! D5    D(7,1,2,5)            -58.7636         -DE/DX =    0.0                 !
 ! D6    D(7,1,2,9)             59.6162         -DE/DX =    0.0                 !
 ! D7    D(8,1,2,3)             55.6731         -DE/DX =    0.0                 !
 ! D8    D(8,1,2,5)           -178.6835         -DE/DX =    0.0                 !
 ! D9    D(8,1,2,9)            -60.3037         -DE/DX =    0.0                 !
 ! D10   D(1,2,5,10)           176.5404         -DE/DX =    0.0                 !
 ! D11   D(1,2,5,11)           -63.5631         -DE/DX =    0.0                 !
 ! D12   D(3,2,5,10)           -59.2496         -DE/DX =    0.0                 !
 ! D13   D(3,2,5,11)            60.6469         -DE/DX =    0.0                 !
 ! D14   D(9,2,5,10)            57.4715         -DE/DX =    0.0                 !
 ! D15   D(9,2,5,11)           177.368          -DE/DX =    0.0                 !
 --------------------------------------------------------------------------------
 GradGradGradGradGradGradGradGradGradGradGradGradGradGradGradGradGradGrad


 ----------------------------------------------------------------------

 Electric dipole moment (input orientation):
 (Debye = 10**-18 statcoulomb cm , SI units = C m)
                  (au)            (Debye)         (10**-30 SI)
   Tot        0.138413D+01      0.351811D+01      0.117352D+02
   x         -0.557283D+00     -0.141647D+01     -0.472484D+01
   y         -0.826101D+00     -0.209974D+01     -0.700398D+01
   z          0.960633D+00      0.244168D+01      0.814458D+01

 Dipole polarizability, Alpha (input orientation).
 (esu units = cm**3 , SI units = C**2 m**2 J**-1)
 Alpha(0;0):
               (au)            (10**-24 esu)      (10**-40 SI)
   iso        0.638149D+02      0.945639D+01      0.105217D+02
   aniso      0.245742D+02      0.364153D+01      0.405174D+01
   xx         0.620805D+02      0.919938D+01      0.102357D+02
   yx         0.443979D+01      0.657909D+00      0.732023D+00
   yy         0.646540D+02      0.958073D+01      0.106600D+02
   zx        -0.785481D+01     -0.116396D+01     -0.129508D+01
   zy        -0.108458D+02     -0.160718D+01     -0.178823D+01
   zz         0.647102D+02      0.958906D+01      0.106693D+02

 ----------------------------------------------------------------------

 Dipole orientation:
     6          1.58863947         -0.36621518         -0.69715688
     6          0.38935189          2.05636295         -1.72900316
     6          0.24665955          1.95213437         -4.52422306
     7          0.07410473          1.87849317         -6.69195717
     7         -2.06327980          2.52247537         -0.55071409
     1          0.39249561         -1.99597672         -1.09011452
     1          1.80799641         -0.18191393          1.33857358
     1          3.43518674         -0.69267453         -1.54217332
     1          1.61615240          3.65155659         -1.27828724
     1         -2.82210089          4.17555130         -1.14580336
     1         -3.30558666          1.12831223         -0.97705825

 Electric dipole moment (dipole orientation):
 (Debye = 10**-18 statcoulomb cm , SI units = C m)
                  (au)            (Debye)         (10**-30 SI)
   Tot        0.138413D+01      0.351811D+01      0.117352D+02
   x          0.000000D+00      0.000000D+00      0.000000D+00
   y          0.000000D+00      0.000000D+00      0.000000D+00
   z          0.138413D+01      0.351811D+01      0.117352D+02

 Dipole polarizability, Alpha (dipole orientation).
 (esu units = cm**3 , SI units = C**2 m**2 J**-1)
 Alpha(0;0):
               (au)            (10**-24 esu)      (10**-40 SI)
   iso        0.638149D+02      0.945639D+01      0.105217D+02
   aniso      0.245742D+02      0.364153D+01      0.405174D+01
   xx         0.569386D+02      0.843743D+01      0.938790D+01
   yx        -0.271747D+01     -0.402688D+00     -0.448050D+00
   yy         0.547335D+02      0.811067D+01      0.902433D+01
   zx        -0.117252D+01     -0.173750D+00     -0.193323D+00
   zy        -0.579761D+00     -0.859117D-01     -0.955896D-01
   zz         0.797726D+02      0.118211D+02      0.131527D+02

 ----------------------------------------------------------------------
 1\1\GINC-A423\Freq\RB3LYP\6-311++G(2df,2p)\C3H6N2\MADANI\09-Jul-2025\0
 \\# freq b3lyp/6-311++g(2df,2p) scrf=(iefpcm,solvent=water) temperatur
 e=298 Geom=AllChk Guess=Read\\2-aminopropanenitrile | OPT @ 298 K\\0,1
 \C,0.9362514381,-0.0521080336,-0.0332313857\C,0.4003399577,1.376211184
 7,0.0974165644\C,0.9354256318,2.2261858167,-0.9924936561\N,1.320233648
 4,2.893004282,-1.8486515693\N,-1.0593738225,1.3829644373,0.1548212982\
 H,0.56990935,-0.5192955385,-0.9471317431\H,0.5936579768,-0.6345033521,
 0.8193676812\H,2.024440419,-0.0602627548,-0.0532609235\H,0.7716413754,
 1.8084094744,1.0281435799\H,-1.4197975253,2.3187003013,0.2966867558\H,
 -1.4583784496,1.0282441826,-0.7067666018\\Version=ES64L-G16RevB.01\Sta
 te=1-A\HF=-227.5092109\RMSD=3.680e-09\RMSF=2.640e-05\ZeroPoint=0.09150
 7\Thermal=0.0973037\Dipole=-0.5572828,-0.8261011,0.9606327\DipoleDeriv
 =0.0303782,-0.0175759,0.0611471,0.0572757,0.0613243,-0.0047217,0.05639
 7,0.0647074,0.0540079,0.8050807,0.0273526,-0.1338558,-0.0365836,0.4040
 392,-0.0785135,-0.0351629,-0.0965938,0.3756129,-0.0352391,0.0897492,-0
 .0545048,0.0908096,0.1471391,-0.1198039,-0.0759962,-0.1609203,0.268519
 4,-0.4270153,-0.0550571,0.0323113,-0.1123488,-0.5091767,0.0903334,0.12
 88089,0.1342721,-0.5457051,-0.7782187,-0.0462901,0.1897697,-0.0384282,
 -0.4978136,0.1861678,0.154601,0.1764348,-0.5439499,0.0513611,-0.031944
 8,-0.091104,0.0106059,0.0112075,-0.0351928,-0.0750078,-0.0966128,-0.07
 00722,0.0844819,-0.0296556,0.0596362,-0.0187364,-0.029355,0.0901428,0.
 053303,0.09045,-0.0402417,-0.1335643,0.0248562,0.0045785,-0.0182208,0.
 0518545,-0.0080505,0.0063818,-0.0093616,0.1046144,0.0152204,-0.0414945
 ,0.0079766,-0.060577,-0.0001246,-0.0283214,-0.0238106,-0.0261923,-0.02
 09723,0.1852588,0.017999,-0.0699412,0.0587124,0.0746861,-0.0301108,-0.
 1101584,0.0176756,0.3270091,0.2022562,0.062061,-0.0060137,0.067491,0.2
 862194,-0.0619294,-0.0793558,-0.0938591,0.0911774\Polar=62.0804963,4.4
 397927,64.6539721,-7.8548086,-10.8457792,64.7102095\Quadrupole=1.68683
 98,-0.0673844,-1.6194555,-3.8197476,4.3431165,4.870572\PG=C01 [X(C3H6N
 2)]\NImag=0\\0.57210029,0.04028778,0.46911177,-0.00179410,-0.01061826,
 0.57674732,-0.08367107,0.03401452,0.00169318,0.44584557,0.01840255,-0.
 16398278,-0.01062923,0.01179859,0.47063102,0.00280188,-0.01483073,-0.0
 7701818,0.05489138,0.05722625,0.53475568,0.00738199,0.00137563,-0.0093
 9489,-0.07013245,-0.02046058,0.02253373,0.27044549,-0.00820618,-0.0309
 7908,0.03046607,-0.02092832,-0.11648462,0.05203846,0.26281447,0.579320
 54,-0.00657538,0.01060147,-0.00013790,0.02289521,0.05115623,-0.1490058
 9,-0.34055359,-0.59290073,0.87379394,-0.00229118,0.00052763,0.00329679
 ,0.01510491,-0.00491856,0.00776757,-0.17141182,-0.23003511,0.29510686,
 0.15516281,-0.00004939,0.00290691,-0.00127197,0.00036450,0.01517920,0.
 00845158,-0.23198299,-0.43877031,0.51336145,0.23618984,0.42589674,0.00
 380627,-0.00204392,-0.00369956,0.00068713,0.00798642,0.01002854,0.2978
 9519,0.51381152,-0.69649301,-0.30340099,-0.52351214,0.68978027,-0.0238
 2486,0.00455455,0.00012112,-0.19569233,-0.00484323,0.00512763,-0.04196
 750,-0.01147033,0.01882126,0.00391029,-0.00244593,0.00207114,0.4761472
 3,0.04058963,-0.00141836,-0.00218556,0.01195248,-0.08488352,-0.0221675
 3,-0.02119496,0.00173970,0.00126826,0.00157356,-0.00200303,0.00231296,
 -0.09325930,0.54382770,0.00753606,-0.00187256,0.00188024,-0.02091979,-
 0.02152519,-0.07322838,0.03070651,0.00215532,-0.00030471,-0.00239312,0
 .00215235,-0.00295430,0.12395411,0.20665063,0.42102379,-0.07889206,-0.
 03844503,-0.07635778,0.00275721,0.00613009,0.01095536,-0.00006810,-0.0
 0069051,0.00016668,0.00002389,0.00008323,-0.00000520,0.00176208,-0.000
 35362,0.00063669,0.08042341,-0.03669209,-0.09294180,-0.09063954,-0.011
 08236,-0.01722210,-0.02741080,0.00009431,0.00171319,-0.00222133,-0.000
 13458,-0.00025711,0.00060576,-0.00159055,0.00215285,0.00092111,0.03920
 696,0.10356322,-0.07592788,-0.09280436,-0.23534536,-0.00032035,-0.0003
 2800,-0.00156172,0.00074226,0.00029006,0.00082461,-0.00031127,-0.00029
 648,0.00025934,0.00057147,0.00031233,0.00052037,0.08338765,0.10252610,
 0.25194847,-0.07414041,-0.04682502,0.06809636,0.00197438,0.00738325,-0
 .00912972,-0.00088537,0.00201262,0.00060413,0.00059471,-0.00001060,-0.
 00066529,0.00092435,-0.00021805,-0.00041679,0.00348528,0.00709515,-0.0
 0902895,0.07574994,-0.04406194,-0.12022704,0.10994465,-0.00982291,-0.0
 2023552,0.02465270,0.00320296,-0.00601551,-0.00139904,-0.00108181,0.00
 009063,0.00148038,-0.00103940,0.00290095,-0.00015686,0.00552581,0.0081
 8878,-0.01073003,0.04822678,0.13334976,0.06701957,0.11294285,-0.215778
 36,-0.00077549,-0.00307385,0.00248775,0.00118461,-0.00046207,0.0004454
 4,-0.00059092,-0.00014485,0.00061579,-0.00045044,-0.00034806,0.0001699
 4,0.00883898,0.01419711,-0.01941319,-0.07461610,-0.12196345,0.22981814
 ,-0.31519587,0.00091880,0.00425497,-0.00833045,-0.00220937,0.00005407,
 -0.00026173,-0.00016899,0.00064103,0.00032712,0.00009296,-0.00042775,-
 0.00060433,0.00324052,0.00075289,-0.00936902,-0.00017689,0.00028110,-0
 .00799818,-0.00011429,-0.00017340,0.34109795,-0.00348738,-0.04881293,0
 .00045030,0.03088199,0.00203297,-0.00013205,0.00050606,0.00054728,0.00
 044715,-0.00000662,-0.00012558,-0.00000460,0.00260857,-0.00679631,-0.0
 0133686,-0.01360949,-0.00012231,0.00144998,-0.01695484,0.00029237,-0.0
 0138830,-0.00132568,0.05182331,0.00410343,-0.00001113,-0.04706942,0.00
 224716,0.00085222,-0.00251051,-0.00019306,0.00027809,-0.00000521,-0.00
 009567,-0.00007650,0.00011582,0.00072211,-0.00092173,0.00057197,-0.027
 50473,0.00113662,0.00143018,0.02518172,-0.00153262,0.00078247,-0.00523
 083,0.00031430,0.04581846,0.00397497,0.00601885,0.01056960,-0.07178454
 ,-0.03310234,-0.06593759,0.00539688,0.00600895,0.00974543,-0.00124708,
 -0.00248341,0.00024237,-0.02286342,-0.01690867,-0.03101113,-0.00019477
 ,0.00249763,-0.00007641,0.00013941,-0.00068367,-0.00037729,0.00044733,
 -0.00049008,0.00014058,0.09140077,-0.00835927,-0.01581115,-0.02722625,
 -0.03499691,-0.08568141,-0.08558860,0.00596380,0.00768487,0.02201461,-
 0.00233741,-0.00315757,-0.00054104,0.00020380,0.00129088,-0.00052963,0
 .00239645,-0.00513144,-0.00010168,-0.00066382,0.00152097,0.00033635,0.
 00002987,0.00138182,0.00039867,0.03750921,0.09675947,0.00049909,-0.002
 27152,-0.00069759,-0.07511902,-0.08784801,-0.23953866,-0.00341047,-0.0
 0398782,-0.03223296,0.00093975,0.00168260,0.00215788,-0.00099621,0.000
 80641,0.00455967,0.00033101,0.00024913,0.00145144,0.00003224,0.0001066
 5,0.00083279,0.00029449,-0.00013204,0.00007800,0.07682257,0.09068899,0
 .26151995,-0.00704756,-0.00170515,0.00000296,-0.01589524,0.03663588,0.
 00590258,0.00050765,0.00139652,0.00078298,-0.00007580,-0.00009223,-0.0
 0033642,-0.09465064,0.10878521,0.00485693,0.00012838,-0.00017796,0.000
 16587,0.00020882,-0.00021376,-0.00016822,-0.00035431,0.00197410,0.0001
 2330,0.00109502,-0.00006244,-0.00043044,0.10973704,0.00118128,0.000825
 25,0.00017599,-0.00799945,0.00160277,0.00470797,-0.00070361,0.00178296
 ,-0.00076997,0.00007806,-0.00041893,0.00015444,0.13392379,-0.37675561,
 -0.07915988,-0.00018996,0.00021399,0.00014974,-0.00011892,0.00024112,-
 0.00014359,-0.00001821,-0.00002184,-0.00019178,0.00025013,0.00024364,0
 .00015916,-0.13093873,0.38565666,-0.00122544,0.00005052,0.00051641,0.0
 0634910,0.00197105,-0.00387230,-0.00021568,-0.00169478,0.00008700,-0.0
 0012463,-0.00013729,0.00064881,-0.00794096,-0.03922288,-0.03332300,-0.
 00001414,0.00029628,0.00020267,0.00004435,-0.00041642,0.00013372,-0.00
 058589,0.00032304,0.00070228,-0.00012621,0.00039448,0.00012469,-0.0094
 7899,0.07105344,0.04138041,0.00160576,-0.00072255,-0.00048820,-0.02017
 599,-0.01481629,-0.03496689,0.00099495,-0.00073311,-0.00163462,-0.0000
 9785,0.00033400,0.00013358,-0.10314087,-0.03420680,-0.11370237,-0.0000
 5631,0.00096039,0.00051652,-0.00005293,0.00006222,0.00010870,0.0002414
 9,-0.00009663,0.00050600,-0.00636457,0.00031671,0.00103700,0.00634664,
 0.00453562,0.01331849,0.12069968,0.00039500,0.00132920,0.00153380,-0.0
 0418214,-0.00095602,0.00305275,0.00038491,-0.00053902,-0.00155811,0.00
 014501,0.00065905,-0.00024978,-0.02664198,-0.08005526,-0.10729845,-0.0
 0005394,-0.00015728,-0.00046767,0.00007345,-0.00010651,0.00004785,-0.0
 0026873,-0.00019881,-0.00024614,0.00138342,0.00089990,0.00054646,-0.01
 560144,-0.01337002,-0.03261745,0.04436644,0.09249477,-0.00024349,0.000
 85763,0.00060240,0.00837149,0.00421210,-0.00053634,0.00070540,0.000005
 87,0.00302868,-0.00019437,-0.00020875,-0.00045959,-0.14200123,-0.14650
 483,-0.31891558,-0.00043451,0.00033955,-0.00031681,-0.00010195,0.00001
 403,-0.00009447,0.00013933,0.00000908,0.00008597,0.00000808,0.00015410
 ,0.00174479,-0.00142055,0.00386449,-0.00660070,0.13517180,0.13725673,0
 .32146163\\0.00001596,-0.00003310,0.00002030,-0.00002857,0.00004493,-0
 .00002128,-0.00004273,-0.00003302,0.00007403,0.00002189,0.00004254,-0.
 00006066,-0.00000102,0.00000775,-0.00002342,0.00001396,-0.00000578,-0.
 00000455,0.00000263,0.00001560,0.00000502,0.00002124,-0.00000033,0.000
 00030,0.00000920,-0.00000948,0.00001939,-0.00002429,-0.00001387,-0.000
 01570,0.00001173,-0.00001522,0.00000659\\\@


 Standing in the middle of the road is very dangerous;
 you get knocked down by the traffic from both sides.
                                -- Margaret Thatcher
 Job cpu time:       0 days  0 hours 10 minutes 32.7 seconds.
 Elapsed time:       0 days  0 hours 10 minutes 38.5 seconds.
 File lengths (MBytes):  RWF=    107 Int=      0 D2E=      0 Chk=      9 Scr=      1
 Normal termination of Gaussian 16 at Wed Jul  9 18:05:17 2025.
