 Entering Gaussian System, Link 0=g16
 Input=acrylonitrile.com
 Output=acrylonitrile.log
 Initial command:
 /apps/external/apps/gaussian/g16-B.01/g16-haswell/g16/l1.exe "/depot/pearce21/data/madani/acrylonitrile/Gau-3699185.inp" -scrdir="/depot/pearce21/data/madani/acrylonitrile/"
 Entering Link 1 = /apps/external/apps/gaussian/g16-B.01/g16-haswell/g16/l1.exe PID=   3699186.
  
 Copyright (c) 1988-2017, Gaussian, Inc.  All Rights Reserved.
  
 This is part of the Gaussian(R) 16 program.  It is based on
 the Gaussian(R) 09 system (copyright 2009, Gaussian, Inc.),
 the Gaussian(R) 03 system (copyright 2003, Gaussian, Inc.),
 the Gaussian(R) 98 system (copyright 1998, Gaussian, Inc.),
 the Gaussian(R) 94 system (copyright 1995, Gaussian, Inc.),
 the Gaussian 92(TM) system (copyright 1992, Gaussian, Inc.),
 the Gaussian 90(TM) system (copyright 1990, Gaussian, Inc.),
 the Gaussian 88(TM) system (copyright 1988, Gaussian, Inc.),
 the Gaussian 86(TM) system (copyright 1986, Carnegie Mellon
 University), and the Gaussian 82(TM) system (copyright 1983,
 Carnegie Mellon University). Gaussian is a federally registered
 trademark of Gaussian, Inc.
  
 This software contains proprietary and confidential information,
 including trade secrets, belonging to Gaussian, Inc.
  
 This software is provided under written license and may be
 used, copied, transmitted, or stored only in accord with that
 written license.
  
 The following legend is applicable only to US Government
 contracts under FAR:
  
                    RESTRICTED RIGHTS LEGEND
  
 Use, reproduction and disclosure by the US Government is
 subject to restrictions as set forth in subparagraphs (a)
 and (c) of the Commercial Computer Software - Restricted
 Rights clause in FAR 52.227-19.
  
 Gaussian, Inc.
 340 Quinnipiac St., Bldg. 40, Wallingford CT 06492
  
  
 ---------------------------------------------------------------
 Warning -- This program may not be used in any manner that
 competes with the business of Gaussian, Inc. or will provide
 assistance to any competitor of Gaussian, Inc.  The licensee
 of this program is prohibited from giving any competitor of
 Gaussian, Inc. access to this program.  By using this program,
 the user acknowledges that Gaussian, Inc. is engaged in the
 business of creating and licensing software in the field of
 computational chemistry and represents and warrants to the
 licensee that it is not a competitor of Gaussian, Inc. and that
 it will not use this program in any manner prohibited above.
 ---------------------------------------------------------------
  

 Cite this work as:
 Gaussian 16, Revision B.01,
 M. J. Frisch, G. W. Trucks, H. B. Schlegel, G. E. Scuseria, 
 M. A. Robb, J. R. Cheeseman, G. Scalmani, V. Barone, 
 G. A. Petersson, H. Nakatsuji, X. Li, M. Caricato, A. V. Marenich, 
 J. Bloino, B. G. Janesko, R. Gomperts, B. Mennucci, H. P. Hratchian, 
 J. V. Ortiz, A. F. Izmaylov, J. L. Sonnenberg, D. Williams-Young, 
 F. Ding, F. Lipparini, F. Egidi, J. Goings, B. Peng, A. Petrone, 
 T. Henderson, D. Ranasinghe, V. G. Zakrzewski, J. Gao, N. Rega, 
 G. Zheng, W. Liang, M. Hada, M. Ehara, K. Toyota, R. Fukuda, 
 J. Hasegawa, M. Ishida, T. Nakajima, Y. Honda, O. Kitao, H. Nakai, 
 T. Vreven, K. Throssell, J. A. Montgomery, Jr., J. E. Peralta, 
 F. Ogliaro, M. J. Bearpark, J. J. Heyd, E. N. Brothers, K. N. Kudin, 
 V. N. Staroverov, T. A. Keith, R. Kobayashi, J. Normand, 
 K. Raghavachari, A. P. Rendell, J. C. Burant, S. S. Iyengar, 
 J. Tomasi, M. Cossi, J. M. Millam, M. Klene, C. Adamo, R. Cammi, 
 J. W. Ochterski, R. L. Martin, K. Morokuma, O. Farkas, 
 J. B. Foresman, and D. J. Fox, Gaussian, Inc., Wallingford CT, 2016.
 
 ******************************************
 Gaussian 16:  ES64L-G16RevB.01 20-Dec-2017
                30-Aug-2025 
 ******************************************
 %nprocshared=16
 Will use up to   16 processors via shared memory.
 %mem=32GB
 %chk=acrylonitrile.chk
 --------------------------------------------------------
 # opt b3lyp/6-311++g(2df,2p) scrf=(iefpcm,solvent=water)
 --------------------------------------------------------
 1/18=20,19=15,26=3,38=1/1,3;
 2/9=110,12=2,17=6,18=5,40=1/2;
 3/5=4,6=6,7=1214,11=2,25=1,30=1,70=2201,71=1,72=1,74=-5/1,2,3;
 4//1;
 5/5=2,38=5,53=1/2;
 6/7=2,8=2,9=2,10=2,28=1/1;
 7//1,2,3,16;
 1/18=20,19=15,26=3/3(2);
 2/9=110/2;
 99//99;
 2/9=110/2;
 3/5=4,6=6,7=1214,11=2,25=1,30=1,70=2205,71=1,72=1,74=-5/1,2,3;
 4/5=5,16=3,69=1/1;
 5/5=2,38=5,53=1/2;
 7//1,2,3,16;
 1/18=20,19=15,26=3/3(-5);
 2/9=110/2;
 6/7=2,8=2,9=2,10=2,19=2,28=1/1;
 99/9=1/99;
 -------------
 Acrylonitrile
 -------------
 Symbolic Z-matrix:
 Charge =  0 Multiplicity = 1
 C                    -0.49781   1.34911   0.68352 
 N                     0.64879   1.34911   0.68352 
 C                    -2.03781   1.34911   0.68352 
 H                    -2.57098   0.42197   0.65115 
 C                    -2.72006   2.51934   0.72439 
 H                    -2.20016   3.4496    0.62839 
 H                    -3.78227   2.51301   0.8531 
 

 GradGradGradGradGradGradGradGradGradGradGradGradGradGradGradGradGradGrad
 Berny optimization.
 Initialization pass.
                           ----------------------------
                           !    Initial Parameters    !
                           ! (Angstroms and Degrees)  !
 --------------------------                            --------------------------
 ! Name  Definition              Value          Derivative Info.                !
 --------------------------------------------------------------------------------
 ! R1    R(1,2)                  1.1466         estimate D2E/DX2                !
 ! R2    R(1,3)                  1.54           estimate D2E/DX2                !
 ! R3    R(3,4)                  1.07           estimate D2E/DX2                !
 ! R4    R(3,5)                  1.3552         estimate D2E/DX2                !
 ! R5    R(5,6)                  1.07           estimate D2E/DX2                !
 ! R6    R(5,7)                  1.07           estimate D2E/DX2                !
 ! A1    A(1,3,4)              119.8865         estimate D2E/DX2                !
 ! A2    A(1,3,5)              120.2269         estimate D2E/DX2                !
 ! A3    A(4,3,5)              119.8865         estimate D2E/DX2                !
 ! A4    A(3,5,6)              120.2269         estimate D2E/DX2                !
 ! A5    A(3,5,7)              119.8865         estimate D2E/DX2                !
 ! A6    A(6,5,7)              119.8865         estimate D2E/DX2                !
 ! A7    L(2,1,3,6,-1)         180.0            estimate D2E/DX2                !
 ! A8    L(2,1,3,6,-2)         180.0            estimate D2E/DX2                !
 ! D1    D(1,3,5,6)              7.9839         estimate D2E/DX2                !
 ! D2    D(1,3,5,7)           -172.0161         estimate D2E/DX2                !
 ! D3    D(4,3,5,6)           -172.0161         estimate D2E/DX2                !
 ! D4    D(4,3,5,7)              7.9838         estimate D2E/DX2                !
 --------------------------------------------------------------------------------
 Trust Radius=3.00D-01 FncErr=1.00D-07 GrdErr=1.00D-06 EigMax=2.50D+02 EigMin=1.00D-04
 Number of steps in this run=     28 maximum allowed number of steps=    100.
 GradGradGradGradGradGradGradGradGradGradGradGradGradGradGradGradGradGrad

                          Input orientation:                          
 ---------------------------------------------------------------------
 Center     Atomic      Atomic             Coordinates (Angstroms)
 Number     Number       Type             X           Y           Z
 ---------------------------------------------------------------------
      1          6           0       -0.497813    1.349106    0.683524
      2          7           0        0.648787    1.349106    0.683524
      3          6           0       -2.037813    1.349106    0.683524
      4          1           0       -2.570977    0.421966    0.651147
      5          6           0       -2.720056    2.519337    0.724389
      6          1           0       -2.200156    3.449599    0.628386
      7          1           0       -3.782268    2.513011    0.853100
 ---------------------------------------------------------------------
                    Distance matrix (angstroms):
                    1          2          3          4          5
     1  C    0.000000
     2  N    1.146600   0.000000
     3  C    1.540000   2.686600   0.000000
     4  H    2.271265   3.350748   1.070000   0.000000
     5  C    2.511867   3.566541   1.355200   2.103938   0.000000
     6  H    2.704272   3.539999   2.107479   3.050342   1.070000
     7  H    3.488707   4.584504   2.103938   2.424970   1.070000
                    6          7
     6  H    0.000000
     7  H    1.852234   0.000000
 Stoichiometry    C3H3N
 Framework group  C1[X(C3H3N)]
 Deg. of freedom    15
 Full point group                 C1      NOp   1
 Largest Abelian subgroup         C1      NOp   1
 Largest concise Abelian subgroup C1      NOp   1
                         Standard orientation:                         
 ---------------------------------------------------------------------
 Center     Atomic      Atomic             Coordinates (Angstroms)
 Number     Number       Type             X           Y           Z
 ---------------------------------------------------------------------
      1          6           0       -0.834931    0.101198    0.000002
      2          7           0       -1.934182   -0.224730    0.010449
      3          6           0        0.641475    0.538953   -0.014030
      4          1           0        0.888793    1.579694   -0.038342
      5          6           0        1.628548   -0.389442    0.004310
      6          1           0        1.393204   -1.428024   -0.099904
      7          1           0        2.646732   -0.082822    0.123412
 ---------------------------------------------------------------------
 Rotational constants (GHZ):          47.0691358           4.7270140           4.2978334
 Standard basis: 6-311++G(2df,2p) (5D, 7F)
 There are   186 symmetry adapted cartesian basis functions of A   symmetry.
 There are   166 symmetry adapted basis functions of A   symmetry.
   166 basis functions,   244 primitive gaussians,   186 cartesian basis functions
    14 alpha electrons       14 beta electrons
       nuclear repulsion energy        88.4461325667 Hartrees.
 NAtoms=    7 NActive=    7 NUniq=    7 SFac= 1.00D+00 NAtFMM=   60 NAOKFM=F Big=F
 Integral buffers will be    131072 words long.
 Raffenetti 2 integral format.
 Two-electron integral symmetry is turned on.
 ------------------------------------------------------------------------------
 Polarizable Continuum Model (PCM)
 =================================
 Model                : PCM.
 Atomic radii         : UFF (Universal Force Field).
 Polarization charges : Total charges.
 Charge compensation  : None.
 Solution method      : On-the-fly selection.
 Cavity type          : Scaled VdW (van der Waals Surface) (Alpha=1.100).
 Cavity algorithm     : GePol (No added spheres)
                        Default sphere list used, NSphG=    7.
                        Lebedev-Laikov grids with approx.  5.0 points / Ang**2.
                        Smoothing algorithm: York/Karplus (Gamma=1.0000).
                        Polarization charges: spherical gaussians, with
                                              point-specific exponents (IZeta= 3).
                        Self-potential: point-specific (ISelfS= 7).
                        Self-field    : sphere-specific E.n sum rule (ISelfD= 2).
 1st derivatives      : Analytical E(r).r(x)/FMM algorithm (CHGder, D1EAlg=3).
                        Cavity 1st derivative terms included.
 Solvent              : Water, Eps=  78.355300 Eps(inf)=   1.777849
 ------------------------------------------------------------------------------
 Spheres list:
 ISph  on   Nord     Re0    Alpha      Xe            Ye            Ze
    1   C      1    1.9255  1.100     -0.834931      0.101198      0.000002
    2   N      2    1.8300  1.100     -1.934182     -0.224730      0.010449
    3   C      3    1.9255  1.100      0.641475      0.538953     -0.014030
    4   H      4    1.4430  1.100      0.888793      1.579694     -0.038342
    5   C      5    1.9255  1.100      1.628548     -0.389442      0.004310
    6   H      6    1.4430  1.100      1.393204     -1.428024     -0.099904
    7   H      7    1.4430  1.100      2.646732     -0.082822      0.123412
 ------------------------------------------------------------------------------
 One-electron integrals computed using PRISM.
 NBasis=   166 RedAO= T EigKep=  4.42D-05  NBF=   166
 NBsUse=   166 1.00D-06 EigRej= -1.00D+00 NBFU=   166
 ExpMin= 3.60D-02 ExpMax= 6.29D+03 ExpMxC= 9.49D+02 IAcc=3 IRadAn=         5 AccDes= 0.00D+00
 Harris functional with IExCor=  402 and IRadAn=       5 diagonalized for initial guess.
 HarFok:  IExCor=  402 AccDes= 0.00D+00 IRadAn=         5 IDoV= 1 UseB2=F ITyADJ=14
 ICtDFT=  3500011 ScaDFX=  1.000000  1.000000  1.000000  1.000000
 FoFCou: FMM=F IPFlag=           0 FMFlag=      100000 FMFlg1=           0
         NFxFlg=           0 DoJE=T BraDBF=F KetDBF=T FulRan=T
         wScrn=  0.000000 ICntrl=       500 IOpCl=  0 I1Cent=   200000004 NGrid=           0
         NMat0=    1 NMatS0=      1 NMatT0=    0 NMatD0=    1 NMtDS0=    0 NMtDT0=    0
 Petite list used in FoFCou.
 Keep R1 ints in memory in canonical form, NReq=112288688.
 Requested convergence on RMS density matrix=1.00D-08 within 128 cycles.
 Requested convergence on MAX density matrix=1.00D-06.
 Requested convergence on             energy=1.00D-06.
 No special actions if energy rises.
 Inv3:  Mode=1 IEnd=     2051787.
 Iteration    1 A*A^-1 deviation from unit magnitude is 2.66D-15 for    587.
 Iteration    1 A*A^-1 deviation from orthogonality  is 1.67D-15 for    611    130.
 Iteration    1 A^-1*A deviation from unit magnitude is 2.89D-15 for    610.
 Iteration    1 A^-1*A deviation from orthogonality  is 2.30D-15 for    782    338.
 Error on total polarization charges =  0.01081
 SCF Done:  E(RB3LYP) =  -170.891526755     A.U. after   11 cycles
            NFock= 11  Conv=0.95D-08     -V/T= 2.0054

 **********************************************************************

            Population analysis using the SCF Density.

 **********************************************************************

 Orbital symmetries:
       Occupied  (A) (A) (A) (A) (A) (A) (A) (A) (A) (A) (A) (A)
                 (A) (A)
       Virtual   (A) (A) (A) (A) (A) (A) (A) (A) (A) (A) (A) (A)
                 (A) (A) (A) (A) (A) (A) (A) (A) (A) (A) (A) (A)
                 (A) (A) (A) (A) (A) (A) (A) (A) (A) (A) (A) (A)
                 (A) (A) (A) (A) (A) (A) (A) (A) (A) (A) (A) (A)
                 (A) (A) (A) (A) (A) (A) (A) (A) (A) (A) (A) (A)
                 (A) (A) (A) (A) (A) (A) (A) (A) (A) (A) (A) (A)
                 (A) (A) (A) (A) (A) (A) (A) (A) (A) (A) (A) (A)
                 (A) (A) (A) (A) (A) (A) (A) (A) (A) (A) (A) (A)
                 (A) (A) (A) (A) (A) (A) (A) (A) (A) (A) (A) (A)
                 (A) (A) (A) (A) (A) (A) (A) (A) (A) (A) (A) (A)
                 (A) (A) (A) (A) (A) (A) (A) (A) (A) (A) (A) (A)
                 (A) (A) (A) (A) (A) (A) (A) (A) (A) (A) (A) (A)
                 (A) (A) (A) (A) (A) (A) (A) (A)
 The electronic state is 1-A.
 Alpha  occ. eigenvalues --  -14.32930 -10.23694 -10.23563 -10.20779  -0.93117
 Alpha  occ. eigenvalues --   -0.80808  -0.64256  -0.53791  -0.47229  -0.42225
 Alpha  occ. eigenvalues --   -0.39000  -0.38640  -0.36302  -0.30013
 Alpha virt. eigenvalues --   -0.06507  -0.00673   0.01135   0.02200   0.02684
 Alpha virt. eigenvalues --    0.05194   0.05772   0.06617   0.07297   0.09205
 Alpha virt. eigenvalues --    0.09420   0.10044   0.12017   0.12273   0.12819
 Alpha virt. eigenvalues --    0.13731   0.14895   0.15889   0.18445   0.19859
 Alpha virt. eigenvalues --    0.21040   0.21813   0.23853   0.24142   0.26985
 Alpha virt. eigenvalues --    0.33208   0.34257   0.42537   0.48241   0.48954
 Alpha virt. eigenvalues --    0.50444   0.51091   0.53115   0.55487   0.57567
 Alpha virt. eigenvalues --    0.58604   0.59305   0.60394   0.61223   0.63194
 Alpha virt. eigenvalues --    0.64211   0.68145   0.70213   0.70547   0.74492
 Alpha virt. eigenvalues --    0.75442   0.77538   0.82985   0.83752   0.84981
 Alpha virt. eigenvalues --    0.88784   0.91866   0.97273   0.99025   1.00120
 Alpha virt. eigenvalues --    1.08664   1.10503   1.14447   1.15466   1.19741
 Alpha virt. eigenvalues --    1.23116   1.25849   1.30193   1.33794   1.36960
 Alpha virt. eigenvalues --    1.40674   1.44579   1.49347   1.50542   1.57123
 Alpha virt. eigenvalues --    1.61827   1.75866   1.78692   1.96809   2.00639
 Alpha virt. eigenvalues --    2.10618   2.40490   2.51043   2.55886   2.63831
 Alpha virt. eigenvalues --    2.65190   2.67595   2.69541   2.71281   2.73102
 Alpha virt. eigenvalues --    2.73366   2.73974   2.78893   2.80733   2.83293
 Alpha virt. eigenvalues --    2.86694   2.88460   2.93874   2.96262   3.01283
 Alpha virt. eigenvalues --    3.06147   3.08132   3.11062   3.15218   3.16814
 Alpha virt. eigenvalues --    3.18141   3.21905   3.22728   3.25418   3.30614
 Alpha virt. eigenvalues --    3.33071   3.35575   3.37685   3.44569   3.51152
 Alpha virt. eigenvalues --    3.60396   3.62256   3.63801   3.66274   3.68095
 Alpha virt. eigenvalues --    3.70679   3.74510   3.81188   3.90644   3.95595
 Alpha virt. eigenvalues --    4.01689   4.05061   4.10530   4.12943   4.15369
 Alpha virt. eigenvalues --    4.23988   4.27791   4.35332   4.39643   4.45411
 Alpha virt. eigenvalues --    4.48784   4.56774   4.61818   4.75482   4.79978
 Alpha virt. eigenvalues --    4.80167   4.89478   5.10879   5.16689   5.20575
 Alpha virt. eigenvalues --    5.36585   5.38057   5.62317   5.82837   6.04240
 Alpha virt. eigenvalues --    6.08589   6.29998   6.98373  24.03159  24.53861
 Alpha virt. eigenvalues --   24.75716  36.28894
          Condensed to atoms (all electrons):
               1          2          3          4          5          6
     1  C    5.397637   0.324256   0.210710  -0.031355   0.050596  -0.004824
     2  N    0.324256   6.992966   0.052543   0.000814  -0.016992   0.003091
     3  C    0.210710   0.052543   4.767120   0.418001   0.556433  -0.039533
     4  H   -0.031355   0.000814   0.418001   0.465635  -0.038600   0.000908
     5  C    0.050596  -0.016992   0.556433  -0.038600   4.901990   0.413449
     6  H   -0.004824   0.003091  -0.039533   0.000908   0.413449   0.485379
     7  H    0.000291   0.001282  -0.025821  -0.001087   0.392113  -0.015800
               7
     1  C    0.000291
     2  N    0.001282
     3  C   -0.025821
     4  H   -0.001087
     5  C    0.392113
     6  H   -0.015800
     7  H    0.488321
 Mulliken charges:
               1
     1  C    0.052689
     2  N   -0.357961
     3  C    0.060547
     4  H    0.185683
     5  C   -0.258988
     6  H    0.157329
     7  H    0.160701
 Sum of Mulliken charges =  -0.00000
 Mulliken charges with hydrogens summed into heavy atoms:
               1
     1  C    0.052689
     2  N   -0.357961
     3  C    0.246230
     5  C    0.059042
 Electronic spatial extent (au):  <R**2>=            291.5888
 Charge=              0.0000 electrons
 Dipole moment (field-independent basis, Debye):
    X=              5.1472    Y=              0.9007    Z=             -0.0489  Tot=              5.2256
 Quadrupole moment (field-independent basis, Debye-Ang):
   XX=            -28.2082   YY=            -21.1500   ZZ=            -25.2207
   XY=             -1.3709   XZ=              0.2386   YZ=              0.0883
 Traceless Quadrupole moment (field-independent basis, Debye-Ang):
   XX=             -3.3485   YY=              3.7096   ZZ=             -0.3611
   XY=             -1.3709   XZ=              0.2386   YZ=              0.0883
 Octapole moment (field-independent basis, Debye-Ang**2):
  XXX=             33.1687  YYY=              1.7555  ZZZ=             -0.0072  XYY=              4.4618
  XXY=              2.6523  XXZ=              0.6366  XZZ=             -0.4781  YZZ=             -0.0081
  YYZ=             -0.4345  XYZ=              0.1206
 Hexadecapole moment (field-independent basis, Debye-Ang**3):
 XXXX=           -338.9876 YYYY=            -50.3567 ZZZZ=            -29.0655 XXXY=             -6.8392
 XXXZ=              3.0027 YYYX=             -0.3073 YYYZ=              0.2215 ZZZX=              0.2325
 ZZZY=              0.0719 XXYY=            -62.2839 XXZZ=            -61.5587 YYZZ=            -15.1045
 XXYZ=              0.3269 YYXZ=             -0.3928 ZZXY=             -0.4782
 N-N= 8.844613256667D+01 E-N=-5.739801468478D+02  KE= 1.699754583146D+02
 D1PCM: PCM CHGder 1st derivatives, ID1Alg=3 FixD1E=F DoIter=F DoCFld=F I1PDM=0.
 Calling FoFJK, ICntrl=      2127 FMM=F ISym2X=0 I1Cent= 0 IOpClX= 0 NMat=1 NMatS=1 NMatT=0.
 ***** Axes restored to original set *****
 -------------------------------------------------------------------
 Center     Atomic                   Forces (Hartrees/Bohr)
 Number     Number              X              Y              Z
 -------------------------------------------------------------------
      1        6          -0.071458542   -0.003554927   -0.005533699
      2        7           0.012231876   -0.000093680    0.000988965
      3        6           0.035659682    0.034456027    0.001611664
      4        1           0.005246243   -0.010523179    0.004228354
      5        6           0.024708985   -0.029142724   -0.001631984
      6        1           0.000912078    0.008277785    0.004518738
      7        1          -0.007300323    0.000580697   -0.004182038
 -------------------------------------------------------------------
 Cartesian Forces:  Max     0.071458542 RMS     0.021315259

 GradGradGradGradGradGradGradGradGradGradGradGradGradGradGradGradGradGrad
 Berny optimization.
 FormGI is forming the generalized inverse of G from B-inverse, IUseBI=4.
 Internal  Forces:  Max     0.059223568 RMS     0.016356996
 Search for a local minimum.
 Step number   1 out of a maximum of   28
 All quantities printed in internal units (Hartrees-Bohrs-Radians)
 Mixed Optimization -- RFO/linear search
 Second derivative matrix not updated -- first step.
 The second derivative matrix:
                          R1        R2        R3        R4        R5
           R1           1.36980
           R2           0.00000   0.28519
           R3           0.00000   0.00000   0.37230
           R4           0.00000   0.00000   0.00000   0.53930
           R5           0.00000   0.00000   0.00000   0.00000   0.37230
           R6           0.00000   0.00000   0.00000   0.00000   0.00000
           A1           0.00000   0.00000   0.00000   0.00000   0.00000
           A2           0.00000   0.00000   0.00000   0.00000   0.00000
           A3           0.00000   0.00000   0.00000   0.00000   0.00000
           A4           0.00000   0.00000   0.00000   0.00000   0.00000
           A5           0.00000   0.00000   0.00000   0.00000   0.00000
           A6           0.00000   0.00000   0.00000   0.00000   0.00000
           A7           0.00000   0.00000   0.00000   0.00000   0.00000
           A8           0.00000   0.00000   0.00000   0.00000   0.00000
           D1           0.00000   0.00000   0.00000   0.00000   0.00000
           D2           0.00000   0.00000   0.00000   0.00000   0.00000
           D3           0.00000   0.00000   0.00000   0.00000   0.00000
           D4           0.00000   0.00000   0.00000   0.00000   0.00000
                          R6        A1        A2        A3        A4
           R6           0.37230
           A1           0.00000   0.16000
           A2           0.00000   0.00000   0.25000
           A3           0.00000   0.00000   0.00000   0.16000
           A4           0.00000   0.00000   0.00000   0.00000   0.16000
           A5           0.00000   0.00000   0.00000   0.00000   0.00000
           A6           0.00000   0.00000   0.00000   0.00000   0.00000
           A7           0.00000   0.00000   0.00000   0.00000   0.00000
           A8           0.00000   0.00000   0.00000   0.00000   0.00000
           D1           0.00000   0.00000   0.00000   0.00000   0.00000
           D2           0.00000   0.00000   0.00000   0.00000   0.00000
           D3           0.00000   0.00000   0.00000   0.00000   0.00000
           D4           0.00000   0.00000   0.00000   0.00000   0.00000
                          A5        A6        A7        A8        D1
           A5           0.16000
           A6           0.00000   0.16000
           A7           0.00000   0.00000   0.00237
           A8           0.00000   0.00000   0.00000   0.00237
           D1           0.00000   0.00000   0.00000   0.00000   0.02681
           D2           0.00000   0.00000   0.00000   0.00000   0.00000
           D3           0.00000   0.00000   0.00000   0.00000   0.00000
           D4           0.00000   0.00000   0.00000   0.00000   0.00000
                          D2        D3        D4
           D2           0.02681
           D3           0.00000   0.02681
           D4           0.00000   0.00000   0.02681
 ITU=  0
     Eigenvalues ---    0.00237   0.00237   0.02681   0.02681   0.02681
     Eigenvalues ---    0.16000   0.16000   0.16000   0.22000   0.28519
     Eigenvalues ---    0.37230   0.37230   0.37230   0.53930   1.36980
 RFO step:  Lambda=-1.65367925D-02 EMin= 2.36824211D-03
 Linear search not attempted -- first point.
 Iteration  1 RMS(Cart)=  0.07870497 RMS(Int)=  0.00208435
 Iteration  2 RMS(Cart)=  0.00268421 RMS(Int)=  0.00001114
 Iteration  3 RMS(Cart)=  0.00000375 RMS(Int)=  0.00001048
 Iteration  4 RMS(Cart)=  0.00000000 RMS(Int)=  0.00001048
 Variable       Old X    -DE/DX   Delta X   Delta X   Delta X     New X
                                 (Linear)    (Quad)   (Total)
    R1        2.16676   0.01223   0.00000   0.00882   0.00882   2.17558
    R2        2.91018  -0.05922   0.00000  -0.19628  -0.19628   2.71390
    R3        2.02201   0.00638   0.00000   0.01640   0.01640   2.03840
    R4        2.56096  -0.02678   0.00000  -0.04818  -0.04818   2.51277
    R5        2.02201   0.00723   0.00000   0.01860   0.01860   2.04060
    R6        2.02201   0.00674   0.00000   0.01734   0.01734   2.03935
    A1        2.09241  -0.01027   0.00000  -0.05753  -0.05756   2.03486
    A2        2.09836   0.00088   0.00000   0.00373   0.00370   2.10206
    A3        2.09241   0.00939   0.00000   0.05380   0.05378   2.14619
    A4        2.09836   0.00444   0.00000   0.02513   0.02513   2.12349
    A5        2.09241  -0.00142   0.00000  -0.00803  -0.00803   2.08438
    A6        2.09241  -0.00302   0.00000  -0.01710  -0.01710   2.07531
    A7        3.14159   0.00024   0.00000   0.01281   0.01281   3.15440
    A8        3.14159   0.00166   0.00000   0.08776   0.08776   3.22935
    D1        0.13934  -0.00456   0.00000  -0.10530  -0.10530   0.03404
    D2       -3.00225  -0.00469   0.00000  -0.10809  -0.10809  -3.11034
    D3       -3.00225  -0.00397   0.00000  -0.09151  -0.09151  -3.09375
    D4        0.13934  -0.00409   0.00000  -0.09430  -0.09430   0.04504
         Item               Value     Threshold  Converged?
 Maximum Force            0.059224     0.000450     NO 
 RMS     Force            0.016357     0.000300     NO 
 Maximum Displacement     0.157656     0.001800     NO 
 RMS     Displacement     0.079385     0.001200     NO 
 Predicted change in Energy=-9.070041D-03
 GradGradGradGradGradGradGradGradGradGradGradGradGradGradGradGradGradGrad

                          Input orientation:                          
 ---------------------------------------------------------------------
 Center     Atomic      Atomic             Coordinates (Angstroms)
 Number     Number       Type             X           Y           Z
 ---------------------------------------------------------------------
      1          6           0       -0.581241    1.361759    0.642217
      2          7           0        0.569244    1.342535    0.680120
      3          6           0       -2.016425    1.365691    0.694234
      4          1           0       -2.502175    0.402576    0.694437
      5          6           0       -2.686286    2.513945    0.724350
      6          1           0       -2.180233    3.466816    0.679563
      7          1           0       -3.763178    2.497910    0.792673
 ---------------------------------------------------------------------
                    Distance matrix (angstroms):
                    1          2          3          4          5
     1  C    0.000000
     2  N    1.151270   0.000000
     3  C    1.436132   2.585811   0.000000
     4  H    2.147731   3.212062   1.078677   0.000000
     5  C    2.401145   3.460150   1.329703   2.119593   0.000000
     6  H    2.643754   3.474506   2.107552   3.081142   1.079841
     7  H    3.382041   4.485247   2.083928   2.447489   1.079176
                    6          7
     6  H    0.000000
     7  H    1.859378   0.000000
 Stoichiometry    C3H3N
 Framework group  C1[X(C3H3N)]
 Deg. of freedom    15
 Full point group                 C1      NOp   1
 Largest Abelian subgroup         C1      NOp   1
 Largest concise Abelian subgroup C1      NOp   1
                         Standard orientation:                         
 ---------------------------------------------------------------------
 Center     Atomic      Atomic             Coordinates (Angstroms)
 Number     Number       Type             X           Y           Z
 ---------------------------------------------------------------------
      1          6           0       -0.775472    0.098126   -0.032573
      2          7           0       -1.878531   -0.227003    0.021954
      3          6           0        0.596297    0.522073   -0.001059
      4          1           0        0.772753    1.586205    0.004379
      5          6           0        1.578441   -0.374290    0.005020
      6          1           0        1.378780   -1.434352   -0.044574
      7          1           0        2.602597   -0.038288    0.058193
 ---------------------------------------------------------------------
 Rotational constants (GHZ):          48.5161716           5.0663426           4.5893667
 Standard basis: 6-311++G(2df,2p) (5D, 7F)
 There are   186 symmetry adapted cartesian basis functions of A   symmetry.
 There are   166 symmetry adapted basis functions of A   symmetry.
   166 basis functions,   244 primitive gaussians,   186 cartesian basis functions
    14 alpha electrons       14 beta electrons
       nuclear repulsion energy        90.5391598118 Hartrees.
 NAtoms=    7 NActive=    7 NUniq=    7 SFac= 1.00D+00 NAtFMM=   60 NAOKFM=F Big=F
 Integral buffers will be    131072 words long.
 Raffenetti 2 integral format.
 Two-electron integral symmetry is turned on.
 ------------------------------------------------------------------------------
 Polarizable Continuum Model (PCM)
 =================================
 Model                : PCM.
 Atomic radii         : UFF (Universal Force Field).
 Polarization charges : Total charges.
 Charge compensation  : None.
 Solution method      : On-the-fly selection.
 Cavity type          : Scaled VdW (van der Waals Surface) (Alpha=1.100).
 Cavity algorithm     : GePol (No added spheres)
                        Default sphere list used, NSphG=    7.
                        Lebedev-Laikov grids with approx.  5.0 points / Ang**2.
                        Smoothing algorithm: York/Karplus (Gamma=1.0000).
                        Polarization charges: spherical gaussians, with
                                              point-specific exponents (IZeta= 3).
                        Self-potential: point-specific (ISelfS= 7).
                        Self-field    : sphere-specific E.n sum rule (ISelfD= 2).
 1st derivatives      : Analytical E(r).r(x)/FMM algorithm (CHGder, D1EAlg=3).
                        Cavity 1st derivative terms included.
 Solvent              : Water, Eps=  78.355300 Eps(inf)=   1.777849
 ------------------------------------------------------------------------------
 Spheres list:
 ISph  on   Nord     Re0    Alpha      Xe            Ye            Ze
    1   C      1    1.9255  1.100     -0.775472      0.098126     -0.032573
    2   N      2    1.8300  1.100     -1.878531     -0.227003      0.021954
    3   C      3    1.9255  1.100      0.596297      0.522073     -0.001059
    4   H      4    1.4430  1.100      0.772753      1.586205      0.004379
    5   C      5    1.9255  1.100      1.578441     -0.374290      0.005020
    6   H      6    1.4430  1.100      1.378780     -1.434352     -0.044574
    7   H      7    1.4430  1.100      2.602597     -0.038288      0.058193
 ------------------------------------------------------------------------------
 One-electron integrals computed using PRISM.
 NBasis=   166 RedAO= T EigKep=  2.91D-05  NBF=   166
 NBsUse=   166 1.00D-06 EigRej= -1.00D+00 NBFU=   166
 Initial guess from the checkpoint file:  "acrylonitrile.chk"
 B after Tr=    -0.000000   -0.000000    0.000000
         Rot=    0.999993    0.000741   -0.000003   -0.003774 Ang=   0.44 deg.
 ExpMin= 3.60D-02 ExpMax= 6.29D+03 ExpMxC= 9.49D+02 IAcc=3 IRadAn=         5 AccDes= 0.00D+00
 Harris functional with IExCor=  402 and IRadAn=       5 diagonalized for initial guess.
 HarFok:  IExCor=  402 AccDes= 0.00D+00 IRadAn=         5 IDoV= 1 UseB2=F ITyADJ=14
 ICtDFT=  3500011 ScaDFX=  1.000000  1.000000  1.000000  1.000000
 FoFCou: FMM=F IPFlag=           0 FMFlag=      100000 FMFlg1=           0
         NFxFlg=           0 DoJE=T BraDBF=F KetDBF=T FulRan=T
         wScrn=  0.000000 ICntrl=       500 IOpCl=  0 I1Cent=   200000004 NGrid=           0
         NMat0=    1 NMatS0=      1 NMatT0=    0 NMatD0=    1 NMtDS0=    0 NMtDT0=    0
 Petite list used in FoFCou.
 Keep R1 ints in memory in canonical form, NReq=112288688.
 Requested convergence on RMS density matrix=1.00D-08 within 128 cycles.
 Requested convergence on MAX density matrix=1.00D-06.
 Requested convergence on             energy=1.00D-06.
 No special actions if energy rises.
 Inv3:  Mode=1 IEnd=     1953747.
 Iteration    1 A*A^-1 deviation from unit magnitude is 2.66D-15 for    122.
 Iteration    1 A*A^-1 deviation from orthogonality  is 2.00D-15 for    653    124.
 Iteration    1 A^-1*A deviation from unit magnitude is 2.66D-15 for    579.
 Iteration    1 A^-1*A deviation from orthogonality  is 2.89D-15 for    604    100.
 Error on total polarization charges =  0.01074
 SCF Done:  E(RB3LYP) =  -170.900822834     A.U. after   10 cycles
            NFock= 10  Conv=0.88D-08     -V/T= 2.0043
 D1PCM: PCM CHGder 1st derivatives, ID1Alg=3 FixD1E=F DoIter=F DoCFld=F I1PDM=0.
 Calling FoFJK, ICntrl=      2127 FMM=F ISym2X=0 I1Cent= 0 IOpClX= 0 NMat=1 NMatS=1 NMatT=0.
 ***** Axes restored to original set *****
 -------------------------------------------------------------------
 Center     Atomic                   Forces (Hartrees/Bohr)
 Number     Number              X              Y              Z
 -------------------------------------------------------------------
      1        6          -0.009589336   -0.003097190    0.004616393
      2        7           0.004376717   -0.000044444   -0.002691990
      3        6           0.011254323    0.003510848   -0.003823840
      4        1          -0.000671310   -0.001503546    0.001504125
      5        6          -0.003364848   -0.001961007   -0.000051294
      6        1          -0.001086983    0.000796635    0.001308922
      7        1          -0.000918564    0.002298703   -0.000862316
 -------------------------------------------------------------------
 Cartesian Forces:  Max     0.011254323 RMS     0.003984589

 GradGradGradGradGradGradGradGradGradGradGradGradGradGradGradGradGradGrad
 Berny optimization.
 Using GEDIIS/GDIIS optimizer.
 FormGI is forming the generalized inverse of G from B-inverse, IUseBI=4.
 Internal  Forces:  Max     0.005763182 RMS     0.002900246
 Search for a local minimum.
 Step number   2 out of a maximum of   28
 All quantities printed in internal units (Hartrees-Bohrs-Radians)
 Mixed Optimization -- RFO/linear search
 Update second derivatives using D2CorX and points    1    2
 DE= -9.30D-03 DEPred=-9.07D-03 R= 1.02D+00
 TightC=F SS=  1.41D+00  RLast= 3.11D-01 DXNew= 5.0454D-01 9.3411D-01
 Trust test= 1.02D+00 RLast= 3.11D-01 DXMaxT set to 5.05D-01
 The second derivative matrix:
                          R1        R2        R3        R4        R5
           R1           1.36406
           R2           0.01779   0.26242
           R3          -0.00253   0.00650   0.37124
           R4           0.00551   0.00811   0.00138   0.55360
           R5          -0.00196   0.00117  -0.00066  -0.00193   0.37237
           R6          -0.00221   0.00372  -0.00085  -0.00032  -0.00028
           A1           0.00371  -0.00907   0.00154  -0.00167   0.00090
           A2          -0.00324   0.02038  -0.00186   0.01115  -0.00267
           A3          -0.00074  -0.01008   0.00019  -0.00890   0.00162
           A4          -0.00119   0.00101  -0.00041  -0.00094  -0.00000
           A5          -0.00079   0.00762  -0.00056   0.00478  -0.00105
           A6           0.00198  -0.00863   0.00098  -0.00384   0.00105
           A7           0.00000  -0.00006   0.00000  -0.00005   0.00001
           A8           0.00315  -0.02176   0.00189  -0.01235   0.00289
           D1           0.00034   0.00265  -0.00000   0.00255  -0.00044
           D2           0.00018   0.00386  -0.00010   0.00326  -0.00061
           D3           0.00071  -0.00050   0.00024   0.00063  -0.00001
           D4           0.00055   0.00071   0.00014   0.00135  -0.00018
                          R6        A1        A2        A3        A4
           R6           0.37175
           A1           0.00120   0.15778
           A2          -0.00225   0.00287   0.25147
           A3           0.00091  -0.00045  -0.00436   0.16462
           A4          -0.00020   0.00057  -0.00152   0.00087   0.15997
           A5          -0.00081   0.00090   0.00120  -0.00207  -0.00059
           A6           0.00100  -0.00147   0.00032   0.00121   0.00061
           A7           0.00001  -0.00001  -0.00002   0.00002   0.00001
           A8           0.00238  -0.00294  -0.00205   0.00498   0.00164
           D1          -0.00023   0.00006   0.00137  -0.00137  -0.00023
           D2          -0.00036   0.00022   0.00151  -0.00166  -0.00033
           D3           0.00011  -0.00033   0.00094  -0.00055   0.00001
           D4          -0.00002  -0.00017   0.00108  -0.00085  -0.00008
                          A5        A6        A7        A8        D1
           A5           0.16072
           A6          -0.00013   0.15951
           A7          -0.00001   0.00000   0.00237
           A8          -0.00148  -0.00016   0.00002   0.00508
           D1           0.00064  -0.00040  -0.00001  -0.00156   0.02722
           D2           0.00073  -0.00040  -0.00001  -0.00173   0.00049
           D3           0.00037  -0.00037  -0.00000  -0.00101   0.00015
           D4           0.00046  -0.00037  -0.00000  -0.00119   0.00024
                          D2        D3        D4
           D2           0.02741
           D3           0.00021   0.02681
           D4           0.00031   0.00006   0.02694
 ITU=  1  0
 Use linear search instead of GDIIS.
     Eigenvalues ---    0.00237   0.00251   0.02673   0.02681   0.02804
     Eigenvalues ---    0.15662   0.16000   0.16323   0.21125   0.27562
     Eigenvalues ---    0.37094   0.37230   0.37274   0.55497   1.36443
 RFO step:  Lambda=-4.65574447D-03 EMin= 2.36713836D-03
 Quartic linear search produced a step of  0.04903.
 Maximum step size (   0.505) exceeded in Quadratic search.
    -- Step size scaled by   0.662
 Iteration  1 RMS(Cart)=  0.06092562 RMS(Int)=  0.07010072
 Iteration  2 RMS(Cart)=  0.04965369 RMS(Int)=  0.02319958
 Iteration  3 RMS(Cart)=  0.02503288 RMS(Int)=  0.00104830
 Iteration  4 RMS(Cart)=  0.00114408 RMS(Int)=  0.00001111
 Iteration  5 RMS(Cart)=  0.00000150 RMS(Int)=  0.00001105
 Iteration  6 RMS(Cart)=  0.00000000 RMS(Int)=  0.00001105
 Variable       Old X    -DE/DX   Delta X   Delta X   Delta X     New X
                                 (Linear)    (Quad)   (Total)
    R1        2.17558   0.00429   0.00043   0.00388   0.00431   2.17989
    R2        2.71390  -0.00521  -0.00962  -0.04877  -0.05839   2.65550
    R3        2.03840   0.00164   0.00080   0.00611   0.00692   2.04532
    R4        2.51277   0.00368  -0.00236  -0.00435  -0.00672   2.50606
    R5        2.04060   0.00008   0.00091   0.00361   0.00452   2.04512
    R6        2.03935   0.00083   0.00085   0.00478   0.00563   2.04497
    A1        2.03486  -0.00292  -0.00282  -0.01929  -0.02214   2.01272
    A2        2.10206   0.00576   0.00018   0.01866   0.01882   2.12087
    A3        2.14619  -0.00283   0.00264   0.00079   0.00340   2.14959
    A4        2.12349   0.00038   0.00123   0.00605   0.00728   2.13077
    A5        2.08438   0.00217  -0.00039   0.00782   0.00742   2.09180
    A6        2.07531  -0.00255  -0.00084  -0.01386  -0.01470   2.06061
    A7        3.15440   0.00019   0.00063   0.01655   0.01718   3.17158
    A8        3.22935  -0.00485   0.00430  -0.50075  -0.49644   2.73291
    D1        0.03404  -0.00074  -0.00516  -0.02785  -0.03302   0.00103
    D2       -3.11034  -0.00043  -0.00530  -0.02126  -0.02656  -3.13690
    D3       -3.09375  -0.00146  -0.00449  -0.04204  -0.04653  -3.14029
    D4        0.04504  -0.00115  -0.00462  -0.03545  -0.04007   0.00497
         Item               Value     Threshold  Converged?
 Maximum Force            0.005763     0.000450     NO 
 RMS     Force            0.002900     0.000300     NO 
 Maximum Displacement     0.320553     0.001800     NO 
 RMS     Displacement     0.132377     0.001200     NO 
 Predicted change in Energy=-2.655136D-03
 GradGradGradGradGradGradGradGradGradGradGradGradGradGradGradGradGradGrad

                          Input orientation:                          
 ---------------------------------------------------------------------
 Center     Atomic      Atomic             Coordinates (Angstroms)
 Number     Number       Type             X           Y           Z
 ---------------------------------------------------------------------
      1          6           0       -0.589039    1.378173    0.810718
      2          7           0        0.521953    1.299204    0.510491
      3          6           0       -1.992501    1.382613    0.740333
      4          1           0       -2.457323    0.405791    0.705525
      5          6           0       -2.681960    2.515243    0.718749
      6          1           0       -2.198840    3.483044    0.753175
      7          1           0       -3.762586    2.487163    0.668603
 ---------------------------------------------------------------------
                    Distance matrix (angstroms):
                    1          2          3          4          5
     1  C    0.000000
     2  N    1.153550   0.000000
     3  C    1.405233   2.526314   0.000000
     4  H    2.108810   3.116459   1.082337   0.000000
     5  C    2.383632   3.433247   1.326149   2.121420   0.000000
     6  H    2.650519   3.497251   2.110580   3.088457   1.082233
     7  H    3.364737   4.448991   2.087672   2.457068   1.082153
                    6          7
     6  H    0.000000
     7  H    1.855864   0.000000
 Stoichiometry    C3H3N
 Framework group  C1[X(C3H3N)]
 Deg. of freedom    15
 Full point group                 C1      NOp   1
 Largest Abelian subgroup         C1      NOp   1
 Largest concise Abelian subgroup C1      NOp   1
                         Standard orientation:                         
 ---------------------------------------------------------------------
 Center     Atomic      Atomic             Coordinates (Angstroms)
 Number     Number       Type             X           Y           Z
 ---------------------------------------------------------------------
      1          6           0       -0.763363    0.071625    0.149765
      2          7           0       -1.853704   -0.218330   -0.090570
      3          6           0        0.564787    0.506029    0.001478
      4          1           0        0.693976    1.576564   -0.091901
      5          6           0        1.576249   -0.351368   -0.020510
      6          1           0        1.426847   -1.419135    0.073204
      7          1           0        2.589070    0.013165   -0.131704
 ---------------------------------------------------------------------
 Rotational constants (GHZ):          49.4112267           5.1540204           4.7030339
 Standard basis: 6-311++G(2df,2p) (5D, 7F)
 There are   186 symmetry adapted cartesian basis functions of A   symmetry.
 There are   166 symmetry adapted basis functions of A   symmetry.
   166 basis functions,   244 primitive gaussians,   186 cartesian basis functions
    14 alpha electrons       14 beta electrons
       nuclear repulsion energy        91.1749092424 Hartrees.
 NAtoms=    7 NActive=    7 NUniq=    7 SFac= 1.00D+00 NAtFMM=   60 NAOKFM=F Big=F
 Integral buffers will be    131072 words long.
 Raffenetti 2 integral format.
 Two-electron integral symmetry is turned on.
 ------------------------------------------------------------------------------
 Polarizable Continuum Model (PCM)
 =================================
 Model                : PCM.
 Atomic radii         : UFF (Universal Force Field).
 Polarization charges : Total charges.
 Charge compensation  : None.
 Solution method      : On-the-fly selection.
 Cavity type          : Scaled VdW (van der Waals Surface) (Alpha=1.100).
 Cavity algorithm     : GePol (No added spheres)
                        Default sphere list used, NSphG=    7.
                        Lebedev-Laikov grids with approx.  5.0 points / Ang**2.
                        Smoothing algorithm: York/Karplus (Gamma=1.0000).
                        Polarization charges: spherical gaussians, with
                                              point-specific exponents (IZeta= 3).
                        Self-potential: point-specific (ISelfS= 7).
                        Self-field    : sphere-specific E.n sum rule (ISelfD= 2).
 1st derivatives      : Analytical E(r).r(x)/FMM algorithm (CHGder, D1EAlg=3).
                        Cavity 1st derivative terms included.
 Solvent              : Water, Eps=  78.355300 Eps(inf)=   1.777849
 ------------------------------------------------------------------------------
 Spheres list:
 ISph  on   Nord     Re0    Alpha      Xe            Ye            Ze
    1   C      1    1.9255  1.100     -0.763363      0.071625      0.149765
    2   N      2    1.8300  1.100     -1.853704     -0.218330     -0.090570
    3   C      3    1.9255  1.100      0.564787      0.506029      0.001478
    4   H      4    1.4430  1.100      0.693976      1.576564     -0.091901
    5   C      5    1.9255  1.100      1.576249     -0.351368     -0.020510
    6   H      6    1.4430  1.100      1.426847     -1.419135      0.073204
    7   H      7    1.4430  1.100      2.589070      0.013165     -0.131704
 ------------------------------------------------------------------------------
 One-electron integrals computed using PRISM.
 NBasis=   166 RedAO= T EigKep=  3.18D-05  NBF=   166
 NBsUse=   166 1.00D-06 EigRej= -1.00D+00 NBFU=   166
 Initial guess from the checkpoint file:  "acrylonitrile.chk"
 B after Tr=     0.000000   -0.000000   -0.000000
         Rot=    0.999985   -0.001893   -0.000057   -0.005176 Ang=  -0.63 deg.
 ExpMin= 3.60D-02 ExpMax= 6.29D+03 ExpMxC= 9.49D+02 IAcc=3 IRadAn=         5 AccDes= 0.00D+00
 Harris functional with IExCor=  402 and IRadAn=       5 diagonalized for initial guess.
 HarFok:  IExCor=  402 AccDes= 0.00D+00 IRadAn=         5 IDoV= 1 UseB2=F ITyADJ=14
 ICtDFT=  3500011 ScaDFX=  1.000000  1.000000  1.000000  1.000000
 FoFCou: FMM=F IPFlag=           0 FMFlag=      100000 FMFlg1=           0
         NFxFlg=           0 DoJE=T BraDBF=F KetDBF=T FulRan=T
         wScrn=  0.000000 ICntrl=       500 IOpCl=  0 I1Cent=   200000004 NGrid=           0
         NMat0=    1 NMatS0=      1 NMatT0=    0 NMatD0=    1 NMtDS0=    0 NMtDT0=    0
 Petite list used in FoFCou.
 Keep R1 ints in memory in canonical form, NReq=112288688.
 Requested convergence on RMS density matrix=1.00D-08 within 128 cycles.
 Requested convergence on MAX density matrix=1.00D-06.
 Requested convergence on             energy=1.00D-06.
 No special actions if energy rises.
 Inv3:  Mode=1 IEnd=     1944075.
 Iteration    1 A*A^-1 deviation from unit magnitude is 3.11D-15 for    181.
 Iteration    1 A*A^-1 deviation from orthogonality  is 1.61D-15 for    601    101.
 Iteration    1 A^-1*A deviation from unit magnitude is 2.89D-15 for    181.
 Iteration    1 A^-1*A deviation from orthogonality  is 1.19D-15 for    513    212.
 Error on total polarization charges =  0.01082
 SCF Done:  E(RB3LYP) =  -170.895847928     A.U. after   12 cycles
            NFock= 12  Conv=0.25D-08     -V/T= 2.0039
 D1PCM: PCM CHGder 1st derivatives, ID1Alg=3 FixD1E=F DoIter=F DoCFld=F I1PDM=0.
 Calling FoFJK, ICntrl=      2127 FMM=F ISym2X=0 I1Cent= 0 IOpClX= 0 NMat=1 NMatS=1 NMatT=0.
 ***** Axes restored to original set *****
 -------------------------------------------------------------------
 Center     Atomic                   Forces (Hartrees/Bohr)
 Number     Number              X              Y              Z
 -------------------------------------------------------------------
      1        6           0.013010986   -0.005514184   -0.025768397
      2        7           0.007574114    0.001547642    0.013102708
      3        6          -0.010176530   -0.001187399    0.012286822
      4        1          -0.001911842    0.000850539    0.000703629
      5        6          -0.008814098    0.003843378    0.000667879
      6        1          -0.000857740   -0.001072953    0.001021216
      7        1           0.001175110    0.001532977   -0.002013857
 -------------------------------------------------------------------
 Cartesian Forces:  Max     0.025768397 RMS     0.008336892

 GradGradGradGradGradGradGradGradGradGradGradGradGradGradGradGradGradGrad
 Berny optimization.
 Using GEDIIS/GDIIS optimizer.
 FormGI is forming the generalized inverse of G from B-inverse, IUseBI=4.
 Internal  Forces:  Max     0.024700361 RMS     0.008525361
 Search for a local minimum.
 Step number   3 out of a maximum of   28
 All quantities printed in internal units (Hartrees-Bohrs-Radians)
 Mixed Optimization -- RFO/linear search
 Update second derivatives using D2CorX and points    1    3    2
 DE=  4.97D-03 DEPred=-2.66D-03 R=-1.87D+00
 Trust test=-1.87D+00 RLast= 5.07D-01 DXMaxT set to 2.52D-01
 The second derivative matrix:
                          R1        R2        R3        R4        R5
           R1           1.35426
           R2           0.02992   0.28861
           R3          -0.00622   0.00879   0.36998
           R4          -0.00134   0.02390  -0.00160   0.55011
           R5          -0.00230  -0.00298  -0.00054  -0.00298   0.37287
           R6          -0.00417   0.00320  -0.00142  -0.00221  -0.00002
           A1           0.00823  -0.01429   0.00321   0.00155   0.00101
           A2          -0.01729   0.04426  -0.00750   0.00248  -0.00388
           A3           0.00341  -0.02164   0.00210  -0.00715   0.00248
           A4          -0.00204   0.00207  -0.00073  -0.00154  -0.00003
           A5          -0.00528   0.01223  -0.00220   0.00148  -0.00110
           A6           0.00732  -0.01429   0.00293   0.00006   0.00113
           A7          -0.00022   0.00556  -0.00037   0.00075  -0.00059
           A8           0.00515   0.02270   0.00006  -0.00262  -0.00225
           D1           0.00137   0.00026   0.00044   0.00307  -0.00028
           D2           0.00068  -0.00005   0.00026   0.00303  -0.00022
           D3           0.00299  -0.00141   0.00099   0.00257  -0.00015
           D4           0.00230  -0.00172   0.00082   0.00253  -0.00009
                          R6        A1        A2        A3        A4
           R6           0.37157
           A1           0.00207   0.15571
           A2          -0.00552   0.00940   0.23235
           A3           0.00220  -0.00242   0.00057   0.16387
           A4          -0.00037   0.00096  -0.00275   0.00123   0.15990
           A5          -0.00163   0.00296  -0.00538  -0.00003  -0.00098
           A6           0.00200  -0.00392   0.00813  -0.00120   0.00108
           A7          -0.00042   0.00014   0.00051  -0.00072  -0.00001
           A8          -0.00057  -0.00344   0.00822  -0.00320   0.00181
           D1           0.00006  -0.00042   0.00267  -0.00163  -0.00014
           D2          -0.00002  -0.00004   0.00171  -0.00136  -0.00028
           D3           0.00043  -0.00136   0.00451  -0.00182   0.00021
           D4           0.00035  -0.00098   0.00355  -0.00155   0.00007
                          A5        A6        A7        A8        D1
           A5           0.15868
           A6           0.00230   0.15662
           A7          -0.00023   0.00025   0.00306
           A8          -0.00164  -0.00017   0.00615   0.05815
           D1           0.00113  -0.00099  -0.00013  -0.00304   0.02714
           D2           0.00103  -0.00075  -0.00042  -0.00559   0.00053
           D3           0.00137  -0.00157   0.00030   0.00071  -0.00014
           D4           0.00127  -0.00134   0.00000  -0.00184   0.00007
                          D2        D3        D4
           D2           0.02765
           D3          -0.00006   0.02637
           D4           0.00024  -0.00036   0.02663
 ITU= -1  1  0
 Use linear search instead of GDIIS.
     Eigenvalues ---    0.00232   0.02555   0.02649   0.02685   0.05767
     Eigenvalues ---    0.14289   0.16011   0.16265   0.18646   0.31236
     Eigenvalues ---    0.37024   0.37230   0.37350   0.55281   1.35553
 RFO step:  Lambda=-9.42680493D-04 EMin= 2.32261351D-03
 Quartic linear search produced a step of -0.80744.
 Maximum step size (   0.252) exceeded in Quadratic search.
    -- Step size scaled by   0.952
 Iteration  1 RMS(Cart)=  0.09025291 RMS(Int)=  0.04324987
 Iteration  2 RMS(Cart)=  0.03926368 RMS(Int)=  0.00361880
 Iteration  3 RMS(Cart)=  0.00440786 RMS(Int)=  0.00002359
 Iteration  4 RMS(Cart)=  0.00002371 RMS(Int)=  0.00000380
 Iteration  5 RMS(Cart)=  0.00000000 RMS(Int)=  0.00000380
 Variable       Old X    -DE/DX   Delta X   Delta X   Delta X     New X
                                 (Linear)    (Quad)   (Total)
    R1        2.17989   0.00378  -0.00348   0.00454   0.00106   2.18096
    R2        2.65550   0.02126   0.04715  -0.01541   0.03174   2.68724
    R3        2.04532   0.00003  -0.00558   0.00581   0.00023   2.04555
    R4        2.50606   0.00792   0.00542   0.00855   0.01398   2.52003
    R5        2.04512  -0.00281  -0.00365  -0.00037  -0.00402   2.04110
    R6        2.04497  -0.00112  -0.00454   0.00275  -0.00179   2.04318
    A1        2.01272  -0.00245   0.01788  -0.01880  -0.00091   2.01181
    A2        2.12087   0.00911  -0.01519   0.03788   0.02269   2.14357
    A3        2.14959  -0.00666  -0.00274  -0.01908  -0.02181   2.12778
    A4        2.13077   0.00033  -0.00588   0.00394  -0.00193   2.12884
    A5        2.09180   0.00135  -0.00599   0.01686   0.01087   2.10268
    A6        2.06061  -0.00167   0.01187  -0.02081  -0.00894   2.05167
    A7        3.17158   0.00353  -0.01387   0.24476   0.23089   3.40246
    A8        2.73291   0.02470   0.40085  -0.01975   0.38110   3.11400
    D1        0.00103  -0.00139   0.02666  -0.03766  -0.01100  -0.00997
    D2       -3.13690  -0.00247   0.02144  -0.03227  -0.01083   3.13546
    D3       -3.14029  -0.00013   0.03757  -0.05806  -0.02049   3.12241
    D4        0.00497  -0.00122   0.03236  -0.05267  -0.02032  -0.01534
         Item               Value     Threshold  Converged?
 Maximum Force            0.024700     0.000450     NO 
 RMS     Force            0.008525     0.000300     NO 
 Maximum Displacement     0.264401     0.001800     NO 
 RMS     Displacement     0.124613     0.001200     NO 
 Predicted change in Energy=-8.215189D-04
 GradGradGradGradGradGradGradGradGradGradGradGradGradGradGradGradGradGrad

                          Input orientation:                          
 ---------------------------------------------------------------------
 Center     Atomic      Atomic             Coordinates (Angstroms)
 Number     Number       Type             X           Y           Z
 ---------------------------------------------------------------------
      1          6           0       -0.552960    1.439482    0.674178
      2          7           0        0.565795    1.159289    0.631106
      3          6           0       -1.974599    1.417451    0.699031
      4          1           0       -2.421407    0.431526    0.704213
      5          6           0       -2.714269    2.526762    0.724662
      6          1           0       -2.269167    3.510813    0.737089
      7          1           0       -3.793687    2.465909    0.737315
 ---------------------------------------------------------------------
                    Distance matrix (angstroms):
                    1          2          3          4          5
     1  C    0.000000
     2  N    1.154113   0.000000
     3  C    1.422027   2.554381   0.000000
     4  H    2.123199   3.075445   1.082457   0.000000
     5  C    2.419914   3.554934   1.333544   2.115704   0.000000
     6  H    2.690676   3.684821   2.114328   3.083224   1.080105
     7  H    3.399978   4.552320   2.099955   2.454173   1.081206
                    6          7
     6  H    0.000000
     7  H    1.848239   0.000000
 Stoichiometry    C3H3N
 Framework group  C1[X(C3H3N)]
 Deg. of freedom    15
 Full point group                 C1      NOp   1
 Largest Abelian subgroup         C1      NOp   1
 Largest concise Abelian subgroup C1      NOp   1
                         Standard orientation:                         
 ---------------------------------------------------------------------
 Center     Atomic      Atomic             Coordinates (Angstroms)
 Number     Number       Type             X           Y           Z
 ---------------------------------------------------------------------
      1          6           0       -0.767269   -0.034240    0.008429
      2          7           0       -1.914676   -0.157655   -0.005754
      3          6           0        0.559488    0.477434    0.000286
      4          1           0        0.638402    1.557002    0.004692
      5          6           0        1.637068   -0.308158   -0.002238
      6          1           0        1.559554   -1.385397    0.010937
      7          1           0        2.629053    0.121762   -0.014204
 ---------------------------------------------------------------------
 Rotational constants (GHZ):          58.6108816           4.8725884           4.4987364
 Standard basis: 6-311++G(2df,2p) (5D, 7F)
 There are   186 symmetry adapted cartesian basis functions of A   symmetry.
 There are   166 symmetry adapted basis functions of A   symmetry.
   166 basis functions,   244 primitive gaussians,   186 cartesian basis functions
    14 alpha electrons       14 beta electrons
       nuclear repulsion energy        90.3950524231 Hartrees.
 NAtoms=    7 NActive=    7 NUniq=    7 SFac= 1.00D+00 NAtFMM=   60 NAOKFM=F Big=F
 Integral buffers will be    131072 words long.
 Raffenetti 2 integral format.
 Two-electron integral symmetry is turned on.
 ------------------------------------------------------------------------------
 Polarizable Continuum Model (PCM)
 =================================
 Model                : PCM.
 Atomic radii         : UFF (Universal Force Field).
 Polarization charges : Total charges.
 Charge compensation  : None.
 Solution method      : On-the-fly selection.
 Cavity type          : Scaled VdW (van der Waals Surface) (Alpha=1.100).
 Cavity algorithm     : GePol (No added spheres)
                        Default sphere list used, NSphG=    7.
                        Lebedev-Laikov grids with approx.  5.0 points / Ang**2.
                        Smoothing algorithm: York/Karplus (Gamma=1.0000).
                        Polarization charges: spherical gaussians, with
                                              point-specific exponents (IZeta= 3).
                        Self-potential: point-specific (ISelfS= 7).
                        Self-field    : sphere-specific E.n sum rule (ISelfD= 2).
 1st derivatives      : Analytical E(r).r(x)/FMM algorithm (CHGder, D1EAlg=3).
                        Cavity 1st derivative terms included.
 Solvent              : Water, Eps=  78.355300 Eps(inf)=   1.777849
 ------------------------------------------------------------------------------
 Spheres list:
 ISph  on   Nord     Re0    Alpha      Xe            Ye            Ze
    1   C      1    1.9255  1.100     -0.767269     -0.034240      0.008429
    2   N      2    1.8300  1.100     -1.914676     -0.157655     -0.005754
    3   C      3    1.9255  1.100      0.559488      0.477434      0.000286
    4   H      4    1.4430  1.100      0.638402      1.557002      0.004692
    5   C      5    1.9255  1.100      1.637068     -0.308158     -0.002238
    6   H      6    1.4430  1.100      1.559554     -1.385397      0.010937
    7   H      7    1.4430  1.100      2.629053      0.121762     -0.014204
 ------------------------------------------------------------------------------
 One-electron integrals computed using PRISM.
 NBasis=   166 RedAO= T EigKep=  2.63D-05  NBF=   166
 NBsUse=   166 1.00D-06 EigRej= -1.00D+00 NBFU=   166
 Lowest energy guess from the checkpoint file:  "acrylonitrile.chk"
 B after Tr=     0.000000   -0.000000   -0.000000
         Rot=    0.999944    0.002446    0.000086   -0.010302 Ang=   1.21 deg.
 B after Tr=     0.000000   -0.000000    0.000000
         Rot=    0.999917   -0.011758   -0.000348   -0.005274 Ang=  -1.48 deg.
 Keep R1 ints in memory in canonical form, NReq=112288688.
 Requested convergence on RMS density matrix=1.00D-08 within 128 cycles.
 Requested convergence on MAX density matrix=1.00D-06.
 Requested convergence on             energy=1.00D-06.
 No special actions if energy rises.
 Inv3:  Mode=1 IEnd=     2036928.
 Iteration    1 A*A^-1 deviation from unit magnitude is 2.66D-15 for    204.
 Iteration    1 A*A^-1 deviation from orthogonality  is 1.33D-15 for    200    168.
 Iteration    1 A^-1*A deviation from unit magnitude is 2.66D-15 for    744.
 Iteration    1 A^-1*A deviation from orthogonality  is 2.12D-15 for    456    236.
 Error on total polarization charges =  0.01085
 SCF Done:  E(RB3LYP) =  -170.898778704     A.U. after   11 cycles
            NFock= 11  Conv=0.22D-08     -V/T= 2.0043
 D1PCM: PCM CHGder 1st derivatives, ID1Alg=3 FixD1E=F DoIter=F DoCFld=F I1PDM=0.
 Calling FoFJK, ICntrl=      2127 FMM=F ISym2X=0 I1Cent= 0 IOpClX= 0 NMat=1 NMatS=1 NMatT=0.
 ***** Axes restored to original set *****
 -------------------------------------------------------------------
 Center     Atomic                   Forces (Hartrees/Bohr)
 Number     Number              X              Y              Z
 -------------------------------------------------------------------
      1        6           0.001017365   -0.019854757   -0.001445589
      2        7           0.003243758    0.009540120    0.000743245
      3        6          -0.004384659    0.012537610    0.001433605
      4        1           0.000932884   -0.000135878   -0.000637646
      5        6          -0.001695785   -0.002485869    0.000203982
      6        1           0.000186806    0.000223556   -0.000498741
      7        1           0.000699631    0.000175219    0.000201144
 -------------------------------------------------------------------
 Cartesian Forces:  Max     0.019854757 RMS     0.005728720

 GradGradGradGradGradGradGradGradGradGradGradGradGradGradGradGradGradGrad
 Berny optimization.
 Using GEDIIS/GDIIS optimizer.
 FormGI is forming the generalized inverse of G from B-inverse, IUseBI=4.
 Internal  Forces:  Max     0.021876866 RMS     0.005373049
 Search for a local minimum.
 Step number   4 out of a maximum of   28
 All quantities printed in internal units (Hartrees-Bohrs-Radians)
 Mixed Optimization -- RFO/linear search
 Update second derivatives using D2CorX and points    1    3    4    2
 DE=  2.04D-03 DEPred=-8.22D-04 R=-2.49D+00
 Trust test=-2.49D+00 RLast= 3.01D-01 DXMaxT set to 1.26D-01
 The second derivative matrix:
                          R1        R2        R3        R4        R5
           R1           1.34474
           R2           0.03650   0.27809
           R3          -0.00951   0.01105   0.36888
           R4          -0.01145   0.02349  -0.00464   0.53731
           R5          -0.00214  -0.00140  -0.00057  -0.00208   0.37267
           R6          -0.00530   0.00408  -0.00177  -0.00273  -0.00016
           A1           0.01313  -0.01975   0.00508   0.00661   0.00101
           A2          -0.03476   0.05682  -0.01372  -0.01771  -0.00318
           A3           0.00858  -0.02176   0.00370  -0.00020   0.00198
           A4          -0.00246   0.00262  -0.00087  -0.00166  -0.00011
           A5          -0.01066   0.01502  -0.00400  -0.00443  -0.00091
           A6           0.01312  -0.01764   0.00488   0.00609   0.00102
           A7           0.01105  -0.02480   0.00577   0.01609  -0.00109
           A8           0.01824   0.00567   0.00477   0.00207  -0.00091
           D1           0.00257  -0.00104   0.00086   0.00373  -0.00017
           D2           0.00121  -0.00101   0.00047   0.00323  -0.00014
           D3           0.00575  -0.00334   0.00189   0.00452  -0.00002
           D4           0.00439  -0.00330   0.00150   0.00402   0.00001
                          R6        A1        A2        A3        A4
           R6           0.37150
           A1           0.00293   0.15340
           A2          -0.00791   0.01749   0.20179
           A3           0.00251  -0.00490   0.01082   0.16022
           A4          -0.00041   0.00129  -0.00361   0.00129   0.15988
           A5          -0.00221   0.00567  -0.01532   0.00308  -0.00119
           A6           0.00262  -0.00697   0.01893  -0.00437   0.00131
           A7           0.00453  -0.00094   0.00817  -0.00716   0.00190
           A8           0.00177  -0.01121   0.02870  -0.00669   0.00312
           D1           0.00021  -0.00120   0.00488  -0.00200  -0.00007
           D2           0.00008  -0.00040   0.00263  -0.00145  -0.00024
           D3           0.00070  -0.00307   0.00975  -0.00295   0.00034
           D4           0.00056  -0.00227   0.00750  -0.00240   0.00017
                          A5        A6        A7        A8        D1
           A5           0.15566
           A6           0.00553   0.15315
           A7           0.00586  -0.00776   0.07240
           A8           0.00379  -0.00692  -0.01280   0.04845
           D1           0.00172  -0.00166  -0.00322  -0.00510   0.02695
           D2           0.00130  -0.00106  -0.00172  -0.00714   0.00041
           D3           0.00277  -0.00311  -0.00649  -0.00257  -0.00048
           D4           0.00234  -0.00251  -0.00499  -0.00461  -0.00020
                          D2        D3        D4
           D2           0.02758
           D3          -0.00027   0.02572
           D4           0.00008  -0.00088   0.02621
 ITU= -1 -1  1  0
 Use linear search instead of GDIIS.
 Energy rises -- skip Quadratic/GDIIS search.
 Quartic linear search produced a step of -0.79105.
 Iteration  1 RMS(Cart)=  0.09468117 RMS(Int)=  0.00988444
 Iteration  2 RMS(Cart)=  0.00967363 RMS(Int)=  0.00006275
 Iteration  3 RMS(Cart)=  0.00006653 RMS(Int)=  0.00000483
 Iteration  4 RMS(Cart)=  0.00000001 RMS(Int)=  0.00000483
 Variable       Old X    -DE/DX   Delta X   Delta X   Delta X     New X
                                 (Linear)    (Quad)   (Total)
    R1        2.18096   0.00080  -0.00425   0.00000  -0.00425   2.17671
    R2        2.68724   0.00412   0.02108   0.00000   0.02108   2.70833
    R3        2.04555  -0.00026  -0.00565   0.00000  -0.00565   2.03990
    R4        2.52003  -0.00129  -0.00574   0.00000  -0.00574   2.51429
    R5        2.04110   0.00027  -0.00039   0.00000  -0.00039   2.04071
    R6        2.04318  -0.00071  -0.00303   0.00000  -0.00303   2.04015
    A1        2.01181  -0.00264   0.01824   0.00000   0.01825   2.03005
    A2        2.14357   0.00340  -0.03284   0.00000  -0.03282   2.11074
    A3        2.12778  -0.00076   0.01457   0.00000   0.01458   2.14236
    A4        2.12884  -0.00021  -0.00423   0.00000  -0.00423   2.12461
    A5        2.10268   0.00025  -0.01447   0.00000  -0.01447   2.08821
    A6        2.05167  -0.00004   0.01870   0.00000   0.01870   2.07037
    A7        3.40246  -0.02188  -0.19623   0.00000  -0.19623   3.20623
    A8        3.11400   0.00115   0.09124   0.00000   0.09124   3.20525
    D1       -0.00997   0.00021   0.03482   0.00000   0.03482   0.02485
    D2        3.13546  -0.00005   0.02957   0.00000   0.02957  -3.11815
    D3        3.12241   0.00067   0.05301   0.00000   0.05301  -3.10776
    D4       -0.01534   0.00041   0.04777   0.00000   0.04777   0.03243
         Item               Value     Threshold  Converged?
 Maximum Force            0.021877     0.000450     NO 
 RMS     Force            0.005373     0.000300     NO 
 Maximum Displacement     0.270878     0.001800     NO 
 RMS     Displacement     0.095768     0.001200     NO 
 Predicted change in Energy=-1.373906D-04
 GradGradGradGradGradGradGradGradGradGradGradGradGradGradGradGradGradGrad

                          Input orientation:                          
 ---------------------------------------------------------------------
 Center     Atomic      Atomic             Coordinates (Angstroms)
 Number     Number       Type             X           Y           Z
 ---------------------------------------------------------------------
      1          6           0       -0.576109    1.377488    0.649505
      2          7           0        0.573125    1.302631    0.670667
      3          6           0       -2.008682    1.376485    0.691374
      4          1           0       -2.486953    0.408787    0.683343
      5          6           0       -2.692709    2.517113    0.727699
      6          1           0       -2.198264    3.476876    0.704148
      7          1           0       -3.770704    2.491850    0.780857
 ---------------------------------------------------------------------
                    Distance matrix (angstroms):
                    1          2          3          4          5
     1  C    0.000000
     2  N    1.151864   0.000000
     3  C    1.433185   2.582946   0.000000
     4  H    2.142627   3.187976   1.079467   0.000000
     5  C    2.405172   3.484808   1.330505   2.118807   0.000000
     6  H    2.653640   3.522650   2.108968   3.081712   1.079896
     7  H    3.385926   4.505023   2.087288   2.448812   1.079601
                    6          7
     6  H    0.000000
     7  H    1.857075   0.000000
 Stoichiometry    C3H3N
 Framework group  C1[X(C3H3N)]
 Deg. of freedom    15
 Full point group                 C1      NOp   1
 Largest Abelian subgroup         C1      NOp   1
 Largest concise Abelian subgroup C1      NOp   1
                         Standard orientation:                         
 ---------------------------------------------------------------------
 Center     Atomic      Atomic             Coordinates (Angstroms)
 Number     Number       Type             X           Y           Z
 ---------------------------------------------------------------------
      1          6           0       -0.773528    0.070835   -0.023075
      2          7           0       -1.889217   -0.212932    0.015723
      3          6           0        0.589457    0.513352   -0.001450
      4          1           0        0.745788    1.581434    0.001809
      5          6           0        1.592430   -0.360868    0.003921
      6          1           0        1.417663   -1.425971   -0.030535
      7          1           0        2.610920   -0.004859    0.042297
 ---------------------------------------------------------------------
 Rotational constants (GHZ):          50.5649377           5.0131345           4.5619838
 Standard basis: 6-311++G(2df,2p) (5D, 7F)
 There are   186 symmetry adapted cartesian basis functions of A   symmetry.
 There are   166 symmetry adapted basis functions of A   symmetry.
   166 basis functions,   244 primitive gaussians,   186 cartesian basis functions
    14 alpha electrons       14 beta electrons
       nuclear repulsion energy        90.4809613444 Hartrees.
 NAtoms=    7 NActive=    7 NUniq=    7 SFac= 1.00D+00 NAtFMM=   60 NAOKFM=F Big=F
 Integral buffers will be    131072 words long.
 Raffenetti 2 integral format.
 Two-electron integral symmetry is turned on.
 ------------------------------------------------------------------------------
 Polarizable Continuum Model (PCM)
 =================================
 Model                : PCM.
 Atomic radii         : UFF (Universal Force Field).
 Polarization charges : Total charges.
 Charge compensation  : None.
 Solution method      : On-the-fly selection.
 Cavity type          : Scaled VdW (van der Waals Surface) (Alpha=1.100).
 Cavity algorithm     : GePol (No added spheres)
                        Default sphere list used, NSphG=    7.
                        Lebedev-Laikov grids with approx.  5.0 points / Ang**2.
                        Smoothing algorithm: York/Karplus (Gamma=1.0000).
                        Polarization charges: spherical gaussians, with
                                              point-specific exponents (IZeta= 3).
                        Self-potential: point-specific (ISelfS= 7).
                        Self-field    : sphere-specific E.n sum rule (ISelfD= 2).
 1st derivatives      : Analytical E(r).r(x)/FMM algorithm (CHGder, D1EAlg=3).
                        Cavity 1st derivative terms included.
 Solvent              : Water, Eps=  78.355300 Eps(inf)=   1.777849
 ------------------------------------------------------------------------------
 Spheres list:
 ISph  on   Nord     Re0    Alpha      Xe            Ye            Ze
    1   C      1    1.9255  1.100     -0.773528      0.070835     -0.023075
    2   N      2    1.8300  1.100     -1.889217     -0.212932      0.015723
    3   C      3    1.9255  1.100      0.589457      0.513352     -0.001450
    4   H      4    1.4430  1.100      0.745788      1.581434      0.001809
    5   C      5    1.9255  1.100      1.592430     -0.360868      0.003921
    6   H      6    1.4430  1.100      1.417663     -1.425971     -0.030535
    7   H      7    1.4430  1.100      2.610920     -0.004859      0.042297
 ------------------------------------------------------------------------------
 One-electron integrals computed using PRISM.
 NBasis=   166 RedAO= T EigKep=  2.81D-05  NBF=   166
 NBsUse=   166 1.00D-06 EigRej= -1.00D+00 NBFU=   166
 Lowest energy guess from the checkpoint file:  "acrylonitrile.chk"
 B after Tr=     0.000000   -0.000000   -0.000000
         Rot=    0.999997    0.001112    0.000044   -0.002137 Ang=   0.28 deg.
 B after Tr=     0.000000    0.000000   -0.000000
         Rot=    0.999966   -0.001217   -0.000039    0.008144 Ang=  -0.94 deg.
 Keep R1 ints in memory in canonical form, NReq=112288688.
 Requested convergence on RMS density matrix=1.00D-08 within 128 cycles.
 Requested convergence on MAX density matrix=1.00D-06.
 Requested convergence on             energy=1.00D-06.
 No special actions if energy rises.
 Inv3:  Mode=1 IEnd=     1910412.
 Iteration    1 A*A^-1 deviation from unit magnitude is 3.11D-15 for    543.
 Iteration    1 A*A^-1 deviation from orthogonality  is 1.55D-15 for    714    251.
 Iteration    1 A^-1*A deviation from unit magnitude is 2.89D-15 for    205.
 Iteration    1 A^-1*A deviation from orthogonality  is 1.33D-15 for    597    100.
 Error on total polarization charges =  0.01077
 SCF Done:  E(RB3LYP) =  -170.900976314     A.U. after    9 cycles
            NFock=  9  Conv=0.22D-08     -V/T= 2.0043
 D1PCM: PCM CHGder 1st derivatives, ID1Alg=3 FixD1E=F DoIter=F DoCFld=F I1PDM=0.
 Calling FoFJK, ICntrl=      2127 FMM=F ISym2X=0 I1Cent= 0 IOpClX= 0 NMat=1 NMatS=1 NMatT=0.
 ***** Axes restored to original set *****
 -------------------------------------------------------------------
 Center     Atomic                   Forces (Hartrees/Bohr)
 Number     Number              X              Y              Z
 -------------------------------------------------------------------
      1        6          -0.007035863   -0.006530468    0.003121986
      2        7           0.003294081    0.001889437   -0.001890648
      3        6           0.008496900    0.005441850   -0.002556006
      4        1          -0.000330284   -0.001246735    0.001056562
      5        6          -0.003023708   -0.002071934   -0.000028505
      6        1          -0.000831000    0.000660507    0.000936572
      7        1          -0.000570127    0.001857343   -0.000639961
 -------------------------------------------------------------------
 Cartesian Forces:  Max     0.008496900 RMS     0.003454752

 GradGradGradGradGradGradGradGradGradGradGradGradGradGradGradGradGradGrad
 Berny optimization.
 Using GEDIIS/GDIIS optimizer.
 FormGI is forming the generalized inverse of G from B-inverse, IUseBI=4.
 Internal  Forces:  Max     0.005202094 RMS     0.002509972
 Search for a local minimum.
 Step number   5 out of a maximum of   28
 All quantities printed in internal units (Hartrees-Bohrs-Radians)
 Mixed Optimization -- RFO/linear search
 Update second derivatives using D2CorX and points    1    3    4    2    5
 The second derivative matrix:
                          R1        R2        R3        R4        R5
           R1           1.34209
           R2           0.01346   0.29841
           R3          -0.00968   0.00396   0.36897
           R4          -0.02653   0.01505  -0.00909   0.51723
           R5           0.00127  -0.00297   0.00054   0.00056   0.37260
           R6          -0.00354   0.00071  -0.00123  -0.00339   0.00024
           A1           0.01457  -0.00738   0.00504   0.01418  -0.00086
           A2          -0.04914   0.02325  -0.01680  -0.04859   0.00281
           A3           0.01683  -0.01548   0.00606   0.01158   0.00033
           A4          -0.00197   0.00064  -0.00072  -0.00257   0.00017
           A5          -0.01414   0.00635  -0.00480  -0.01255   0.00067
           A6           0.01612  -0.00698   0.00552   0.01512  -0.00084
           A7           0.01461   0.00810   0.00349   0.02381  -0.00475
           A8           0.00312   0.02322  -0.00043  -0.00511  -0.00193
           D1           0.00323   0.00217   0.00103   0.00657  -0.00075
           D2           0.00243   0.00147   0.00081   0.00617  -0.00064
           D3           0.00616   0.00167   0.00197   0.00827  -0.00087
           D4           0.00536   0.00097   0.00176   0.00787  -0.00077
                          R6        A1        A2        A3        A4
           R6           0.37193
           A1           0.00209   0.15315
           A2          -0.00655   0.02352   0.16639
           A3           0.00272  -0.00904   0.02831   0.15336
           A4          -0.00020   0.00107  -0.00379   0.00172   0.15997
           A5          -0.00185   0.00718  -0.02443   0.00766  -0.00124
           A6           0.00205  -0.00826   0.02822  -0.00938   0.00127
           A7           0.00250   0.00143   0.00904  -0.01198   0.00129
           A8          -0.00094  -0.00341   0.00695  -0.00211   0.00170
[...]
 This molecule is an asymmetric top.
 Rotational symmetry number  1.
 Rotational temperatures (Kelvin)      2.44497     0.23960     0.21822
 Rotational constants (GHZ):          50.94494     4.99251     4.54692
 Zero-point vibrational energy     133234.1 (Joules/Mol)
                                   31.84371 (Kcal/Mol)
 Warning -- explicit consideration of   7 degrees of freedom as
           vibrations may cause significant error
 Vibrational temperatures:    350.68   518.43   851.08  1028.61  1268.57
          (Kelvin)           1441.09  1467.19  1599.08  1899.49  2082.77
                             2401.07  3337.63  4547.61  4575.87  4679.61
 
 Zero-point correction=                           0.050746 (Hartree/Particle)
 Thermal correction to Energy=                    0.060675
 Thermal correction to Enthalpy=                  0.062331
 Thermal correction to Gibbs Free Energy=        -0.000277
 Sum of electronic and zero-point Energies=           -170.850651
 Sum of electronic and thermal Energies=              -170.840722
 Sum of electronic and thermal Enthalpies=            -170.839066
 Sum of electronic and thermal Free Energies=         -170.901675
 
                     E (Thermal)             CV                S
                      KCal/Mol        Cal/Mol-Kelvin    Cal/Mol-Kelvin
 Total                   38.074             19.117             75.119
 Electronic               0.000              0.000              0.000
 Translational            1.559              2.981             40.619
 Rotational               1.559              2.981             24.821
 Vibrational             34.956             13.156              9.680
 Vibration     1          1.078              1.914              2.818
 Vibration     2          1.123              1.832              2.084
 Vibration     3          1.259              1.601              1.225
 Vibration     4          1.355              1.454              0.935
 Vibration     5          1.505              1.244              0.652
 Vibration     6          1.626              1.094              0.502
 Vibration     7          1.646              1.072              0.483
                       Q            Log10(Q)             Ln(Q)
 Total Bot       0.118235D+01          0.072746          0.167505
 Total V=0       0.239468D+14         13.379247         30.806854
 Vib (Bot)       0.322393D-12        -12.491614        -28.763005
 Vib (Bot)    1  0.146379D+01          0.165480          0.381031
 Vib (Bot)    2  0.968676D+00         -0.013821         -0.031825
 Vib (Bot)    3  0.551607D+00         -0.258370         -0.594919
 Vib (Bot)    4  0.434895D+00         -0.361615         -0.832650
 Vib (Bot)    5  0.326216D+00         -0.486495         -1.120197
 Vib (Bot)    6  0.269275D+00         -0.569804         -1.312021
 Vib (Bot)    7  0.261773D+00         -0.582076         -1.340279
 Vib (V=0)       0.652959D+01          0.814886          1.876344
 Vib (V=0)    1  0.204683D+01          0.311082          0.716293
 Vib (V=0)    2  0.159011D+01          0.201426          0.463801
 Vib (V=0)    3  0.124449D+01          0.094993          0.218729
 Vib (V=0)    4  0.116267D+01          0.065457          0.150721
 Vib (V=0)    5  0.109701D+01          0.040209          0.092585
 Vib (V=0)    6  0.106790D+01          0.028530          0.065693
 Vib (V=0)    7  0.106438D+01          0.027097          0.062393
 Electronic      0.100000D+01          0.000000          0.000000
 Translational   0.618530D+08          7.791361         17.940272
 Rotational      0.592925D+05          4.773000         10.990238
 ***** Axes restored to original set *****
 -------------------------------------------------------------------
 Center     Atomic                   Forces (Hartrees/Bohr)
 Number     Number              X              Y              Z
 -------------------------------------------------------------------
      1        6          -0.000086216   -0.000004078    0.000022724
      2        7           0.000076497   -0.000010919   -0.000004121
      3        6           0.000020416   -0.000025963    0.000008329
      4        1          -0.000013359    0.000029957   -0.000017091
      5        6           0.000009296   -0.000008750   -0.000039623
      6        1          -0.000002020   -0.000015377   -0.000005002
      7        1          -0.000004613    0.000035129    0.000034783
 -------------------------------------------------------------------
 Cartesian Forces:  Max     0.000086216 RMS     0.000031582
 FormGI is forming the generalized inverse of G from B-inverse, IUseBI=4.

 GradGradGradGradGradGradGradGradGradGradGradGradGradGradGradGradGradGrad
 Berny optimization.
 Internal  Forces:  Max     0.000079580 RMS     0.000025518
 Search for a local minimum.
 Step number   1 out of a maximum of    2
 All quantities printed in internal units (Hartrees-Bohrs-Radians)
 Second derivative matrix not updated -- analytic derivatives used.
 The second derivative matrix:
                          R1        R2        R3        R4        R5
           R1           1.21861
           R2           0.02375   0.36247
           R3          -0.00208   0.00890   0.35688
           R4          -0.01191   0.03318   0.00720   0.60764
           R5           0.00050   0.00014  -0.00071   0.00471   0.36154
           R6          -0.00000   0.00035   0.00027   0.00455   0.00150
           A1           0.00090   0.01037   0.00758  -0.02497  -0.00051
           A2           0.00141   0.01926  -0.01107   0.01768  -0.00334
           A3          -0.00231  -0.02963   0.00350   0.00729   0.00385
           A4          -0.00026  -0.00565   0.00320   0.01138   0.00500
           A5           0.00095   0.00709  -0.00287   0.01093  -0.01019
           A6          -0.00070  -0.00144  -0.00033  -0.02231   0.00520
           A7          -0.00215   0.00049   0.00050  -0.00301   0.00019
           A8           0.00000   0.00000  -0.00000  -0.00000  -0.00000
           D1           0.00000  -0.00001   0.00000   0.00000  -0.00000
           D2           0.00000  -0.00000   0.00000   0.00002   0.00000
           D3           0.00000   0.00000   0.00000   0.00000  -0.00000
           D4           0.00000   0.00000   0.00000   0.00002   0.00000
                          R6        A1        A2        A3        A4
           R6           0.36321
           A1          -0.00107   0.08553
           A2           0.00411  -0.04894   0.10012
           A3          -0.00304  -0.03660  -0.05118   0.08778
           A4          -0.01004  -0.00214  -0.00691   0.00905   0.08170
           A5           0.00487  -0.00088   0.00915  -0.00827  -0.04571
           A6           0.00517   0.00302  -0.00224  -0.00078  -0.03598
           A7          -0.00018   0.01568  -0.01605   0.00037   0.00089
           A8          -0.00000  -0.00000  -0.00000   0.00000   0.00000
           D1          -0.00000   0.00000   0.00001  -0.00001  -0.00000
           D2           0.00000  -0.00000   0.00001  -0.00001  -0.00000
           D3          -0.00000   0.00000  -0.00001   0.00001  -0.00000
           D4           0.00000  -0.00000  -0.00001   0.00001  -0.00000
                          A5        A6        A7        A8        D1
           A5           0.08108
           A6          -0.03537   0.07135
           A7          -0.00205   0.00117   0.09243
           A8          -0.00000   0.00000  -0.00000   0.05748
           D1          -0.00001   0.00000   0.00000  -0.00320   0.02736
           D2           0.00002  -0.00001  -0.00000  -0.00533   0.00798
           D3          -0.00001   0.00000   0.00000  -0.00052   0.00778
           D4           0.00002  -0.00001   0.00000  -0.00264  -0.01160
                          D2        D3        D4
           D2           0.03318
           D3          -0.01676   0.03135
           D4           0.00844   0.00681   0.02685
 ITU=  0
     Eigenvalues ---    0.02975   0.03863   0.04792   0.05990   0.08313
     Eigenvalues ---    0.10483   0.11249   0.12989   0.15672   0.35344
     Eigenvalues ---    0.36150   0.36439   0.36862   0.61585   1.21949
 Angle between quadratic step and forces=  54.74 degrees.
 Linear search not attempted -- first point.
 Iteration  1 RMS(Cart)=  0.00038834 RMS(Int)=  0.00000012
 Iteration  2 RMS(Cart)=  0.00000012 RMS(Int)=  0.00000002
 Variable       Old X    -DE/DX   Delta X   Delta X   Delta X     New X
                                 (Linear)    (Quad)   (Total)
    R1        2.17921   0.00008   0.00000   0.00006   0.00006   2.17928
    R2        2.69381  -0.00000   0.00000  -0.00003  -0.00003   2.69378
    R3        2.04515  -0.00002   0.00000  -0.00006  -0.00006   2.04508
    R4        2.51701   0.00000   0.00000   0.00001   0.00001   2.51702
    R5        2.04221  -0.00002   0.00000  -0.00005  -0.00005   2.04216
    R6        2.04110   0.00001   0.00000   0.00002   0.00002   2.04112
    A1        2.01783   0.00002   0.00000   0.00021   0.00021   2.01805
    A2        2.14090  -0.00001   0.00000  -0.00014  -0.00014   2.14076
    A3        2.12445  -0.00001   0.00000  -0.00007  -0.00007   2.12438
    A4        2.12970  -0.00001   0.00000  -0.00008  -0.00008   2.12962
    A5        2.10002   0.00003   0.00000   0.00026   0.00026   2.10028
    A6        2.05346  -0.00002   0.00000  -0.00018  -0.00018   2.05328
    A7        3.16545  -0.00002   0.00000  -0.00022  -0.00022   3.16524
    A8        3.14153  -0.00000   0.00000   0.00007   0.00007   3.14159
    D1       -0.00026   0.00001   0.00000   0.00026   0.00026   0.00000
    D2        3.14076   0.00003   0.00000   0.00083   0.00083  -3.14159
    D3        3.14132   0.00000   0.00000   0.00027   0.00027  -3.14159
    D4       -0.00085   0.00003   0.00000   0.00085   0.00085  -0.00000
         Item               Value     Threshold  Converged?
 Maximum Force            0.000080     0.000450     YES
 RMS     Force            0.000026     0.000300     YES
 Maximum Displacement     0.000971     0.001800     YES
 RMS     Displacement     0.000388     0.001200     YES
 Predicted change in Energy=-4.184912D-08
 Optimization completed.
    -- Stationary point found.
                           ----------------------------
                           !   Optimized Parameters   !
                           ! (Angstroms and Degrees)  !
 --------------------------                            --------------------------
 ! Name  Definition              Value          Derivative Info.                !
 --------------------------------------------------------------------------------
 ! R1    R(1,2)                  1.1532         -DE/DX =    0.0001              !
 ! R2    R(1,3)                  1.4255         -DE/DX =    0.0                 !
 ! R3    R(3,4)                  1.0822         -DE/DX =    0.0                 !
 ! R4    R(3,5)                  1.3319         -DE/DX =    0.0                 !
 ! R5    R(5,6)                  1.0807         -DE/DX =    0.0                 !
 ! R6    R(5,7)                  1.0801         -DE/DX =    0.0                 !
 ! A1    A(1,3,4)              115.6133         -DE/DX =    0.0                 !
 ! A2    A(1,3,5)              122.6647         -DE/DX =    0.0                 !
 ! A3    A(4,3,5)              121.722          -DE/DX =    0.0                 !
 ! A4    A(3,5,6)              122.0228         -DE/DX =    0.0                 !
 ! A5    A(3,5,7)              120.3225         -DE/DX =    0.0                 !
 ! A6    A(6,5,7)              117.6546         -DE/DX =    0.0                 !
 ! A7    L(2,1,3,6,-1)         181.3672         -DE/DX =    0.0                 !
 ! A8    L(2,1,3,6,-2)         179.9963         -DE/DX =    0.0                 !
 ! D1    D(1,3,5,6)             -0.015          -DE/DX =    0.0                 !
 ! D2    D(1,3,5,7)           -180.0477         -DE/DX =    0.0                 !
 ! D3    D(4,3,5,6)           -180.0158         -DE/DX =    0.0                 !
 ! D4    D(4,3,5,7)             -0.0485         -DE/DX =    0.0                 !
 --------------------------------------------------------------------------------
 GradGradGradGradGradGradGradGradGradGradGradGradGradGradGradGradGradGrad


 ----------------------------------------------------------------------

 Electric dipole moment (input orientation):
 (Debye = 10**-18 statcoulomb cm , SI units = C m)
                  (au)            (Debye)         (10**-30 SI)
   Tot        0.204044D+01      0.518628D+01      0.172996D+02
   x         -0.201949D+01     -0.513304D+01     -0.171220D+02
   y          0.287906D+00      0.731783D+00      0.244096D+01
   z          0.464035D-01      0.117946D+00      0.393425D+00

 Dipole polarizability, Alpha (input orientation).
 (esu units = cm**3 , SI units = C**2 m**2 J**-1)
 Alpha(0;0):
               (au)            (10**-24 esu)      (10**-40 SI)
   iso        0.527626D+02      0.781861D+01      0.869938D+01
   aniso      0.449131D+02      0.665543D+01      0.740517D+01
   xx         0.762316D+02      0.112964D+02      0.125689D+02
   yx        -0.139503D+02     -0.206722D+01     -0.230009D+01
   yy         0.489823D+02      0.725843D+01      0.807609D+01
   zx        -0.108719D+01     -0.161105D+00     -0.179253D+00
   zy         0.488462D+00      0.723826D-01      0.805365D-01
   zz         0.330739D+02      0.490105D+01      0.545315D+01

 ----------------------------------------------------------------------

 Dipole orientation:
     6          1.55189907          2.18297093          1.46204496
     7          1.58366569          2.39400903         -0.70668974
     6          1.50291960          1.85895190          4.13584551
     1          1.21263093         -0.05721267          4.78904497
     6          1.79331302          3.77500256          5.74200582
     1          2.08416543          5.69170630          5.09991518
     1          1.74237746          3.44806003          7.75610314

 Electric dipole moment (dipole orientation):
 (Debye = 10**-18 statcoulomb cm , SI units = C m)
                  (au)            (Debye)         (10**-30 SI)
   Tot        0.204044D+01      0.518628D+01      0.172996D+02
   x          0.000000D+00      0.000000D+00      0.000000D+00
   y          0.000000D+00      0.000000D+00      0.000000D+00
   z          0.204044D+01      0.518628D+01      0.172996D+02

 Dipole polarizability, Alpha (dipole orientation).
 (esu units = cm**3 , SI units = C**2 m**2 J**-1)
 Alpha(0;0):
               (au)            (10**-24 esu)      (10**-40 SI)
   iso        0.527626D+02      0.781861D+01      0.869938D+01
   aniso      0.449131D+02      0.665543D+01      0.740517D+01
   xx         0.333278D+02      0.493867D+01      0.549501D+01
   yx         0.186539D+01      0.276422D+00      0.307561D+00
   yy         0.453448D+02      0.671941D+01      0.747635D+01
   zx         0.143948D+01      0.213308D+00      0.237338D+00
   zy         0.948398D+01      0.140538D+01      0.156370D+01
   zz         0.796152D+02      0.117977D+02      0.131268D+02

 ----------------------------------------------------------------------
 1\1\GINC-A272\Freq\RB3LYP\6-311++G(2df,2p)\C3H3N1\MADANI\30-Aug-2025\0
 \\# freq b3lyp/6-311++g(2df,2p) scrf=(iefpcm,solvent=water) temperatur
 e=523 Geom=AllChk Guess=Read\\Acrylonitrile\\0,1\C,-0.5733408896,1.353
 992873,0.6673986822\N,0.5784810406,1.3038585397,0.6421791658\C,-1.9982
 365317,1.3819719692,0.6981171831\H,-2.4852863037,0.4155169859,0.697014
 6491\C,-2.6945204811,2.5170743882,0.7264733111\H,-2.2132373455,3.48467
 93261,0.7279645282\H,-3.774154949,2.4941373379,0.7484464204\\Version=E
 S64L-G16RevB.01\State=1-A\HF=-170.9013974\RMSD=9.107e-10\RMSF=3.158e-0
 5\ZeroPoint=0.0507462\Thermal=0.0606749\Dipole=-2.0194942,0.2879055,0.
 0464035\DipoleDeriv=0.6949898,-0.1800925,-0.012317,-0.1123047,0.093442
 3,0.0008985,-0.011565,0.0023547,0.2191283,-0.7085373,0.1350861,0.00749
 78,0.0186733,-0.4197493,-0.0002562,0.0061797,-0.0027519,-0.4321052,-0.
 0875896,0.1129655,0.0006018,0.2317403,0.0433796,-0.0029417,0.0019231,-
 0.0003693,-0.1222999,0.023419,-0.0012384,0.003809,-0.0031097,0.0385866
 ,-0.0019137,0.0037875,-0.0019359,0.203367,0.0459643,0.0092219,-0.00503
 9,-0.084189,0.1342464,0.0058139,-0.0058078,0.0036015,-0.2023749,0.0521
 701,-0.0793015,0.0017451,-0.026127,0.0193681,-0.001382,0.0022944,-0.00
 01607,0.1815338,-0.0204163,0.0033589,0.0037023,-0.0246834,0.0907263,-0
 .0002188,0.0031882,-0.0007384,0.1527509\Polar=76.2315642,-13.9502989,4
 8.9823071,-1.0871879,0.4884619,33.0739152\Quadrupole=-2.7510429,2.9270
 827,-0.1760398,0.6475555,0.0639547,0.0229718\PG=C01 [X(C3H3N1)]\NImag=
 0\\1.53061988,-0.05607222,0.12453362,-0.03144193,0.00160349,0.09113721
 ,-1.19219814,0.04872348,0.02522346,1.21585332,0.04941457,-0.04265578,-
 0.00109174,-0.05109090,0.02158665,0.02523075,-0.00107712,-0.04013933,-
 0.02615896,0.00110265,0.02121455,-0.27487344,-0.00314443,0.00453756,-0
 .02771163,0.00244345,0.00099821,0.62897559,-0.01843604,-0.08864600,0.0
 0005293,0.01106138,0.02274682,-0.00017667,-0.08088109,0.78627566,0.004
 34992,-0.00027014,-0.06098855,0.00110359,0.00000649,0.01784777,-0.0118
 4936,0.00969020,0.11770592,-0.02163111,-0.02785836,0.00014961,-0.00032
 748,0.00317195,0.00006865,-0.11155647,-0.11670178,0.00020859,0.1208725
 6,-0.00156925,0.00610778,0.00009413,0.00250035,-0.00147516,-0.00008410
 ,-0.11190649,-0.27761538,-0.00048854,0.12092125,0.29493855,0.00046617,
 0.00064901,0.00111128,0.00005848,-0.00009726,0.00108189,0.00026359,-0.
 00037411,-0.03637327,-0.00062773,0.00065424,0.02378438,-0.04343478,0.0
 3553715,0.00143298,0.00438253,-0.00373865,-0.00011293,-0.21410075,0.18
 913102,0.00568062,0.01284013,-0.01242721,-0.00026480,0.70525441,0.0247
 1353,0.00375279,-0.00052202,-0.01256841,-0.00079939,0.00024387,0.17865
 618,-0.42575950,-0.00824967,0.01758902,-0.02178930,-0.00073007,-0.0804
 4154,0.78643862,0.00129910,-0.00074945,0.00400756,-0.00021842,0.000054
 33,0.00114720,0.00554063,-0.00847039,-0.05291204,0.00009457,-0.0000834
 6,0.00724469,-0.01316178,0.00969700,0.12063219,0.00188523,0.00066511,-
 0.00023088,0.00002307,-0.00010446,0.00003068,0.01039075,0.01840322,0.0
 0016850,-0.00117796,0.00269826,0.00029629,-0.11935739,-0.12006837,0.00
 020850,0.11504924,-0.00131330,0.00100715,0.00015471,0.00053256,-0.0001
 0268,-0.00003139,-0.01357866,-0.01974465,-0.00004440,0.00305231,-0.001
 68015,-0.00022297,-0.11333257,-0.28361901,-0.00053234,0.12273293,0.300
 46640,-0.00025496,0.00011190,-0.00953986,0.00003689,-0.00001772,0.0015
 6407,-0.00021851,-0.00071743,0.00804531,0.00030529,-0.00021192,0.01140
 720,0.00029676,-0.00038767,-0.04068430,-0.00041993,0.00072490,0.024810
 63,-0.00036763,0.00214926,0.00032919,-0.00002168,-0.00009596,-0.000056
 41,-0.01112405,-0.00257672,0.00033815,0.00098033,-0.00021691,-0.000192
 00,-0.34558414,-0.00788042,0.00623740,-0.00681294,0.00190673,0.0002544
 6,0.36293011,0.00326271,-0.00409956,-0.00029151,0.00084153,0.00069952,
 0.00002276,0.02841104,0.00274304,-0.00064395,-0.00017438,0.00151365,0.
 00012116,-0.01472822,-0.05822423,0.00008432,-0.02432669,0.00367294,0.0
 0049793,0.00671401,0.05369462,0.00035096,-0.00026771,0.01441169,-0.000
 04505,0.00004325,-0.00271615,0.00072788,-0.00000453,0.00667485,-0.0001
 9899,0.00011964,-0.00825617,0.00612916,-0.00005144,-0.03943532,-0.0000
 5317,-0.00004852,0.00439695,-0.00691078,0.00020930,0.02492414\\0.00008
 622,0.00000408,-0.00002272,-0.00007650,0.00001092,0.00000412,-0.000020
 42,0.00002596,-0.00000833,0.00001336,-0.00002996,0.00001709,-0.0000093
 0,0.00000875,0.00003962,0.00000202,0.00001538,0.00000500,0.00000461,-0
 .00003513,-0.00003478\\\@


 HONESTY IN A LAWYER IS LIKE A HEN'S HIND LEGS.
  -- MAGNUS OLESON, LAKE WOBEGON PATRIARCH, C.1875
 Job cpu time:       0 days  0 hours  7 minutes  9.8 seconds.
 Elapsed time:       0 days  0 hours  7 minutes 12.7 seconds.
 File lengths (MBytes):  RWF=     72 Int=      0 D2E=      0 Chk=      6 Scr=      1
 Normal termination of Gaussian 16 at Sat Aug 30 18:25:25 2025.
