 Entering Gaussian System, Link 0=g16
 Input=beta-alanine_298K.com
 Output=beta-alanine_298K.log
 Initial command:
 /apps/external/apps/gaussian/g16-B.01/g16-haswell/g16/l1.exe "/depot/pearce21/data/madani/beta-alanine/Gau-2863598.inp" -scrdir="/depot/pearce21/data/madani/beta-alanine/"
 Entering Link 1 = /apps/external/apps/gaussian/g16-B.01/g16-haswell/g16/l1.exe PID=   2863599.
  
 Copyright (c) 1988-2017, Gaussian, Inc.  All Rights Reserved.
  
 This is part of the Gaussian(R) 16 program.  It is based on
 the Gaussian(R) 09 system (copyright 2009, Gaussian, Inc.),
 the Gaussian(R) 03 system (copyright 2003, Gaussian, Inc.),
 the Gaussian(R) 98 system (copyright 1998, Gaussian, Inc.),
 the Gaussian(R) 94 system (copyright 1995, Gaussian, Inc.),
 the Gaussian 92(TM) system (copyright 1992, Gaussian, Inc.),
 the Gaussian 90(TM) system (copyright 1990, Gaussian, Inc.),
 the Gaussian 88(TM) system (copyright 1988, Gaussian, Inc.),
 the Gaussian 86(TM) system (copyright 1986, Carnegie Mellon
 University), and the Gaussian 82(TM) system (copyright 1983,
 Carnegie Mellon University). Gaussian is a federally registered
 trademark of Gaussian, Inc.
  
 This software contains proprietary and confidential information,
 including trade secrets, belonging to Gaussian, Inc.
  
 This software is provided under written license and may be
 used, copied, transmitted, or stored only in accord with that
 written license.
  
 The following legend is applicable only to US Government
 contracts under FAR:
  
                    RESTRICTED RIGHTS LEGEND
  
 Use, reproduction and disclosure by the US Government is
 subject to restrictions as set forth in subparagraphs (a)
 and (c) of the Commercial Computer Software - Restricted
 Rights clause in FAR 52.227-19.
  
 Gaussian, Inc.
 340 Quinnipiac St., Bldg. 40, Wallingford CT 06492
  
  
 ---------------------------------------------------------------
 Warning -- This program may not be used in any manner that
 competes with the business of Gaussian, Inc. or will provide
 assistance to any competitor of Gaussian, Inc.  The licensee
 of this program is prohibited from giving any competitor of
 Gaussian, Inc. access to this program.  By using this program,
 the user acknowledges that Gaussian, Inc. is engaged in the
 business of creating and licensing software in the field of
 computational chemistry and represents and warrants to the
 licensee that it is not a competitor of Gaussian, Inc. and that
 it will not use this program in any manner prohibited above.
 ---------------------------------------------------------------
  

 Cite this work as:
 Gaussian 16, Revision B.01,
 M. J. Frisch, G. W. Trucks, H. B. Schlegel, G. E. Scuseria, 
 M. A. Robb, J. R. Cheeseman, G. Scalmani, V. Barone, 
 G. A. Petersson, H. Nakatsuji, X. Li, M. Caricato, A. V. Marenich, 
 J. Bloino, B. G. Janesko, R. Gomperts, B. Mennucci, H. P. Hratchian, 
 J. V. Ortiz, A. F. Izmaylov, J. L. Sonnenberg, D. Williams-Young, 
 F. Ding, F. Lipparini, F. Egidi, J. Goings, B. Peng, A. Petrone, 
 T. Henderson, D. Ranasinghe, V. G. Zakrzewski, J. Gao, N. Rega, 
 G. Zheng, W. Liang, M. Hada, M. Ehara, K. Toyota, R. Fukuda, 
 J. Hasegawa, M. Ishida, T. Nakajima, Y. Honda, O. Kitao, H. Nakai, 
 T. Vreven, K. Throssell, J. A. Montgomery, Jr., J. E. Peralta, 
 F. Ogliaro, M. J. Bearpark, J. J. Heyd, E. N. Brothers, K. N. Kudin, 
 V. N. Staroverov, T. A. Keith, R. Kobayashi, J. Normand, 
 K. Raghavachari, A. P. Rendell, J. C. Burant, S. S. Iyengar, 
 J. Tomasi, M. Cossi, J. M. Millam, M. Klene, C. Adamo, R. Cammi, 
 J. W. Ochterski, R. L. Martin, K. Morokuma, O. Farkas, 
 J. B. Foresman, and D. J. Fox, Gaussian, Inc., Wallingford CT, 2016.
 
 ******************************************
 Gaussian 16:  ES64L-G16RevB.01 20-Dec-2017
                 9-Jul-2025 
 ******************************************
 %nprocshared=16
 Will use up to   16 processors via shared memory.
 %mem=32GB
 %Chk=beta-alanine_298K.chk
 --------------------------------------------------------
 # opt b3lyp/6-311++g(2df,2p) scrf=(iefpcm,solvent=water)
 --------------------------------------------------------
 1/18=20,19=15,26=3,38=1/1,3;
 2/9=110,12=2,17=6,18=5,40=1/2;
 3/5=4,6=6,7=1214,11=2,25=1,30=1,70=2201,71=1,72=1,74=-5/1,2,3;
 4//1;
 5/5=2,38=5,53=1/2;
 6/7=2,8=2,9=2,10=2,28=1/1;
 7//1,2,3,16;
 1/18=20,19=15,26=3/3(2);
 2/9=110/2;
 99//99;
 2/9=110/2;
 3/5=4,6=6,7=1214,11=2,25=1,30=1,70=2205,71=1,72=1,74=-5/1,2,3;
 4/5=5,16=3,69=1/1;
 5/5=2,38=5,53=1/2;
 7//1,2,3,16;
 1/18=20,19=15,26=3/3(-5);
 2/9=110/2;
 6/7=2,8=2,9=2,10=2,19=2,28=1/1;
 99/9=1/99;
 --------------------------
 beta-alanine | OPT @ 298 K
 --------------------------
 Symbolic Z-matrix:
 Charge =  0 Multiplicity = 1
 C                     0.95525  -0.04918  -0.14213 
 C                     0.45235   0.89409  -1.22994 
 N                     0.93051   0.51767  -2.55296 
 C                     0.43445  -1.45218  -0.29949 
 O                    -0.30731  -2.02812   0.48505 
 O                     0.89604  -2.08178  -1.3956 
 H                     0.61096   0.32311   0.83174 
 H                     2.04961  -0.07331  -0.0963 
 H                    -0.64296   0.91158  -1.23492 
 H                     0.79513   1.91216  -1.01108 
 H                     0.6252    1.17285  -3.26579 
 H                     1.94799   0.47427  -2.56882 
 H                     0.40706  -2.9256   -1.4554 
 

 GradGradGradGradGradGradGradGradGradGradGradGradGradGradGradGradGradGrad
 Berny optimization.
 Initialization pass.
                           ----------------------------
                           !    Initial Parameters    !
                           ! (Angstroms and Degrees)  !
 --------------------------                            --------------------------
 ! Name  Definition              Value          Derivative Info.                !
 --------------------------------------------------------------------------------
 ! R1    R(1,2)                  1.5251         estimate D2E/DX2                !
 ! R2    R(1,4)                  1.5048         estimate D2E/DX2                !
 ! R3    R(1,7)                  1.098          estimate D2E/DX2                !
 ! R4    R(1,8)                  1.0956         estimate D2E/DX2                !
 ! R5    R(2,3)                  1.4563         estimate D2E/DX2                !
 ! R6    R(2,9)                  1.0955         estimate D2E/DX2                !
 ! R7    R(2,10)                 1.0963         estimate D2E/DX2                !
 ! R8    R(3,11)                 1.0152         estimate D2E/DX2                !
 ! R9    R(3,12)                 1.0185         estimate D2E/DX2                !
 ! R10   R(4,5)                  1.2237         estimate D2E/DX2                !
 ! R11   R(4,6)                  1.3457         estimate D2E/DX2                !
 ! R12   R(6,13)                 0.9771         estimate D2E/DX2                !
 ! A1    A(2,1,4)              112.8264         estimate D2E/DX2                !
 ! A2    A(2,1,7)              108.6346         estimate D2E/DX2                !
 ! A3    A(2,1,8)              111.8905         estimate D2E/DX2                !
 ! A4    A(4,1,7)              107.4792         estimate D2E/DX2                !
 ! A5    A(4,1,8)              109.2413         estimate D2E/DX2                !
 ! A6    A(7,1,8)              106.4741         estimate D2E/DX2                !
 ! A7    A(1,2,3)              112.325          estimate D2E/DX2                !
 ! A8    A(1,2,9)              110.0485         estimate D2E/DX2                !
 ! A9    A(1,2,10)             109.1997         estimate D2E/DX2                !
 ! A10   A(3,2,9)              109.1655         estimate D2E/DX2                !
 ! A11   A(3,2,10)             108.587          estimate D2E/DX2                !
 ! A12   A(9,2,10)             107.3801         estimate D2E/DX2                !
 ! A13   A(2,3,11)             111.8608         estimate D2E/DX2                !
 ! A14   A(2,3,12)             110.6813         estimate D2E/DX2                !
 ! A15   A(11,3,12)            108.4816         estimate D2E/DX2                !
 ! A16   A(1,4,5)              125.5608         estimate D2E/DX2                !
 ! A17   A(1,4,6)              113.7454         estimate D2E/DX2                !
 ! A18   A(5,4,6)              120.6594         estimate D2E/DX2                !
 ! A19   A(4,6,13)             106.3938         estimate D2E/DX2                !
 ! D1    D(4,1,2,3)            -64.3009         estimate D2E/DX2                !
 ! D2    D(4,1,2,9)             57.5458         estimate D2E/DX2                !
 ! D3    D(4,1,2,10)           175.1775         estimate D2E/DX2                !
 ! D4    D(7,1,2,3)            176.6314         estimate D2E/DX2                !
 ! D5    D(7,1,2,9)            -61.5219         estimate D2E/DX2                !
 ! D6    D(7,1,2,10)            56.1097         estimate D2E/DX2                !
 ! D7    D(8,1,2,3)             59.3721         estimate D2E/DX2                !
 ! D8    D(8,1,2,9)           -178.7812         estimate D2E/DX2                !
 ! D9    D(8,1,2,10)           -61.1495         estimate D2E/DX2                !
 ! D10   D(2,1,4,5)           -115.5086         estimate D2E/DX2                !
 ! D11   D(2,1,4,6)             66.6256         estimate D2E/DX2                !
 ! D12   D(7,1,4,5)              4.2276         estimate D2E/DX2                !
 ! D13   D(7,1,4,6)           -173.6382         estimate D2E/DX2                !
 ! D14   D(8,1,4,5)            119.3665         estimate D2E/DX2                !
 ! D15   D(8,1,4,6)            -58.4993         estimate D2E/DX2                !
 ! D16   D(1,2,3,11)          -177.5097         estimate D2E/DX2                !
 ! D17   D(1,2,3,12)           -56.4093         estimate D2E/DX2                !
 ! D18   D(9,2,3,11)            60.1422         estimate D2E/DX2                !
 ! D19   D(9,2,3,12)          -178.7574         estimate D2E/DX2                !
 ! D20   D(10,2,3,11)          -56.6348         estimate D2E/DX2                !
 ! D21   D(10,2,3,12)           64.4656         estimate D2E/DX2                !
 ! D22   D(1,4,6,13)          -172.7631         estimate D2E/DX2                !
 ! D23   D(5,4,6,13)             9.2551         estimate D2E/DX2                !
 --------------------------------------------------------------------------------
 Trust Radius=3.00D-01 FncErr=1.00D-07 GrdErr=1.00D-06 EigMax=2.50D+02 EigMin=1.00D-04
 Number of steps in this run=     64 maximum allowed number of steps=    100.
 GradGradGradGradGradGradGradGradGradGradGradGradGradGradGradGradGradGrad

                          Input orientation:                          
 ---------------------------------------------------------------------
 Center     Atomic      Atomic             Coordinates (Angstroms)
 Number     Number       Type             X           Y           Z
 ---------------------------------------------------------------------
      1          6           0        0.955250   -0.049180   -0.142130
      2          6           0        0.452350    0.894090   -1.229940
      3          7           0        0.930510    0.517670   -2.552960
      4          6           0        0.434450   -1.452180   -0.299490
      5          8           0       -0.307310   -2.028120    0.485050
      6          8           0        0.896040   -2.081780   -1.395600
      7          1           0        0.610960    0.323110    0.831740
      8          1           0        2.049610   -0.073310   -0.096300
      9          1           0       -0.642960    0.911580   -1.234920
     10          1           0        0.795130    1.912160   -1.011080
     11          1           0        0.625200    1.172850   -3.265790
     12          1           0        1.947990    0.474270   -2.568820
     13          1           0        0.407060   -2.925600   -1.455400
 ---------------------------------------------------------------------
                    Distance matrix (angstroms):
                    1          2          3          4          5
     1  C    0.000000
     2  C    1.525122   0.000000
     3  N    2.476698   1.456266   0.000000
     4  C    1.504794   2.524092   3.033894   0.000000
     5  O    2.429736   3.472403   4.152439   1.223690   0.000000
     6  O    2.388756   3.013321   2.845665   1.345704   2.233333
     7  H    1.097979   2.145157   3.405313   2.112461   2.547881
     8  H    1.095585   2.184546   2.763480   2.133380   3.116781
     9  H    2.161371   1.095461   2.090024   2.761015   3.422396
    10  H    2.151178   1.096296   2.083344   3.457634   4.356557
    11  H    3.370392   2.062103   1.015186   3.965615   5.018425
    12  H    2.673641   2.050802   1.018529   3.339442   4.546917
    13  H    3.209203   3.826606   3.651677   1.872924   2.254139
                    6          7          8          9         10
     6  O    0.000000
     7  H    3.290260   0.000000
     8  H    2.655721   1.757305   0.000000
     9  H    3.369650   2.487910   3.084866   0.000000
    10  H    4.013676   2.440284   2.520443   1.766173   0.000000
    11  H    3.763453   4.184736   3.691548   2.408511   2.378902
    12  H    3.002738   3.657090   2.534468   2.946787   2.413124
    13  H    0.977092   3.978279   3.560994   3.984357   4.873596
                   11         12         13
    11  H    0.000000
    12  H    1.650320   0.000000
    13  H    4.485799   3.895290   0.000000
 Stoichiometry    C3H7NO2
 Framework group  C1[X(C3H7NO2)]
 Deg. of freedom    33
 Full point group                 C1      NOp   1
 Largest Abelian subgroup         C1      NOp   1
 Largest concise Abelian subgroup C1      NOp   1
                         Standard orientation:                         
 ---------------------------------------------------------------------
 Center     Atomic      Atomic             Coordinates (Angstroms)
 Number     Number       Type             X           Y           Z
 ---------------------------------------------------------------------
      1          6           0       -0.132523   -0.879126    0.552130
      2          6           0       -1.401062   -0.676794   -0.269983
      3          7           0       -1.913500    0.682728   -0.170898
      4          6           0        1.021750   -0.049628    0.058174
      5          8           0        2.063296   -0.487702   -0.411604
      6          8           0        0.843069    1.274994    0.214276
      7          1           0        0.165781   -1.933554    0.483183
      8          1           0       -0.297313   -0.671738    1.615211
      9          1           0       -1.208243   -0.912655   -1.322231
     10          1           0       -2.174400   -1.368407    0.084253
     11          1           0       -2.779544    0.798865   -0.687696
     12          1           0       -2.081792    0.933714    0.801771
     13          1           0        1.590101    1.709636   -0.241508
 ---------------------------------------------------------------------
 Rotational constants (GHZ):           6.5884416           2.5038174           2.0204237
 Standard basis: 6-311++G(2df,2p) (5D, 7F)
 There are   304 symmetry adapted cartesian basis functions of A   symmetry.
 There are   274 symmetry adapted basis functions of A   symmetry.
   274 basis functions,   396 primitive gaussians,   304 cartesian basis functions
    24 alpha electrons       24 beta electrons
       nuclear repulsion energy       245.6370777023 Hartrees.
 NAtoms=   13 NActive=   13 NUniq=   13 SFac= 1.00D+00 NAtFMM=   60 NAOKFM=F Big=F
 Integral buffers will be    131072 words long.
 Raffenetti 2 integral format.
 Two-electron integral symmetry is turned on.
 ------------------------------------------------------------------------------
 Polarizable Continuum Model (PCM)
 =================================
 Model                : PCM.
 Atomic radii         : UFF (Universal Force Field).
 Polarization charges : Total charges.
 Charge compensation  : None.
 Solution method      : On-the-fly selection.
 Cavity type          : Scaled VdW (van der Waals Surface) (Alpha=1.100).
 Cavity algorithm     : GePol (No added spheres)
                        Default sphere list used, NSphG=   13.
                        Lebedev-Laikov grids with approx.  5.0 points / Ang**2.
                        Smoothing algorithm: York/Karplus (Gamma=1.0000).
                        Polarization charges: spherical gaussians, with
                                              point-specific exponents (IZeta= 3).
                        Self-potential: point-specific (ISelfS= 7).
                        Self-field    : sphere-specific E.n sum rule (ISelfD= 2).
 1st derivatives      : Analytical E(r).r(x)/FMM algorithm (CHGder, D1EAlg=3).
                        Cavity 1st derivative terms included.
 Solvent              : Water, Eps=  78.355300 Eps(inf)=   1.777849
 ------------------------------------------------------------------------------
 Spheres list:
 ISph  on   Nord     Re0    Alpha      Xe            Ye            Ze
    1   C      1    1.9255  1.100     -0.132523     -0.879126      0.552130
    2   C      2    1.9255  1.100     -1.401062     -0.676794     -0.269983
    3   N      3    1.8300  1.100     -1.913500      0.682728     -0.170898
    4   C      4    1.9255  1.100      1.021750     -0.049628      0.058174
    5   O      5    1.7500  1.100      2.063296     -0.487702     -0.411604
    6   O      6    1.7500  1.100      0.843069      1.274994      0.214276
    7   H      7    1.4430  1.100      0.165781     -1.933554      0.483183
    8   H      8    1.4430  1.100     -0.297313     -0.671738      1.615211
    9   H      9    1.4430  1.100     -1.208243     -0.912655     -1.322231
   10   H     10    1.4430  1.100     -2.174400     -1.368407      0.084253
   11   H     11    1.4430  1.100     -2.779544      0.798865     -0.687696
   12   H     12    1.4430  1.100     -2.081792      0.933714      0.801771
   13   H     13    1.4430  1.100      1.590101      1.709636     -0.241508
 ------------------------------------------------------------------------------
 One-electron integrals computed using PRISM.
 NBasis=   274 RedAO= T EigKep=  3.21D-05  NBF=   274
 NBsUse=   274 1.00D-06 EigRej= -1.00D+00 NBFU=   274
 ExpMin= 3.60D-02 ExpMax= 8.59D+03 ExpMxC= 1.30D+03 IAcc=3 IRadAn=         5 AccDes= 0.00D+00
 Harris functional with IExCor=  402 and IRadAn=       5 diagonalized for initial guess.
 HarFok:  IExCor=  402 AccDes= 0.00D+00 IRadAn=         5 IDoV= 1 UseB2=F ITyADJ=14
 ICtDFT=  3500011 ScaDFX=  1.000000  1.000000  1.000000  1.000000
 FoFCou: FMM=F IPFlag=           0 FMFlag=      100000 FMFlg1=           0
         NFxFlg=           0 DoJE=T BraDBF=F KetDBF=T FulRan=T
         wScrn=  0.000000 ICntrl=       500 IOpCl=  0 I1Cent=   200000004 NGrid=           0
         NMat0=    1 NMatS0=      1 NMatT0=    0 NMatD0=    1 NMtDS0=    0 NMtDT0=    0
 Petite list used in FoFCou.
 Requested convergence on RMS density matrix=1.00D-08 within 128 cycles.
 Requested convergence on MAX density matrix=1.00D-06.
 Requested convergence on             energy=1.00D-06.
 No special actions if energy rises.
 Inv3:  Mode=1 IEnd=     3878307.
 Iteration    1 A*A^-1 deviation from unit magnitude is 3.11D-15 for    755.
 Iteration    1 A*A^-1 deviation from orthogonality  is 1.33D-15 for    972    832.
 Iteration    1 A^-1*A deviation from unit magnitude is 2.55D-15 for    741.
 Iteration    1 A^-1*A deviation from orthogonality  is 1.13D-15 for    652    183.
 Error on total polarization charges =  0.01173
 SCF Done:  E(RB3LYP) =  -323.874440249     A.U. after   12 cycles
            NFock= 12  Conv=0.44D-08     -V/T= 2.0040

 **********************************************************************

            Population analysis using the SCF Density.

 **********************************************************************

 Orbital symmetries:
       Occupied  (A) (A) (A) (A) (A) (A) (A) (A) (A) (A) (A) (A)
                 (A) (A) (A) (A) (A) (A) (A) (A) (A) (A) (A) (A)
       Virtual   (A) (A) (A) (A) (A) (A) (A) (A) (A) (A) (A) (A)
                 (A) (A) (A) (A) (A) (A) (A) (A) (A) (A) (A) (A)
                 (A) (A) (A) (A) (A) (A) (A) (A) (A) (A) (A) (A)
                 (A) (A) (A) (A) (A) (A) (A) (A) (A) (A) (A) (A)
                 (A) (A) (A) (A) (A) (A) (A) (A) (A) (A) (A) (A)
                 (A) (A) (A) (A) (A) (A) (A) (A) (A) (A) (A) (A)
                 (A) (A) (A) (A) (A) (A) (A) (A) (A) (A) (A) (A)
                 (A) (A) (A) (A) (A) (A) (A) (A) (A) (A) (A) (A)
                 (A) (A) (A) (A) (A) (A) (A) (A) (A) (A) (A) (A)
                 (A) (A) (A) (A) (A) (A) (A) (A) (A) (A) (A) (A)
                 (A) (A) (A) (A) (A) (A) (A) (A) (A) (A) (A) (A)
                 (A) (A) (A) (A) (A) (A) (A) (A) (A) (A) (A) (A)
                 (A) (A) (A) (A) (A) (A) (A) (A) (A) (A) (A) (A)
                 (A) (A) (A) (A) (A) (A) (A) (A) (A) (A) (A) (A)
                 (A) (A) (A) (A) (A) (A) (A) (A) (A) (A) (A) (A)
                 (A) (A) (A) (A) (A) (A) (A) (A) (A) (A) (A) (A)
                 (A) (A) (A) (A) (A) (A) (A) (A) (A) (A) (A) (A)
                 (A) (A) (A) (A) (A) (A) (A) (A) (A) (A) (A) (A)
                 (A) (A) (A) (A) (A) (A) (A) (A) (A) (A) (A) (A)
                 (A) (A) (A) (A) (A) (A) (A) (A) (A) (A) (A) (A)
                 (A) (A) (A) (A) (A) (A) (A) (A) (A) (A)
 The electronic state is 1-A.
 Alpha  occ. eigenvalues --  -19.17721 -19.12392 -14.29300 -10.31584 -10.20380
 Alpha  occ. eigenvalues --  -10.19015  -1.11778  -1.02282  -0.89095  -0.77705
 Alpha  occ. eigenvalues --   -0.65812  -0.60237  -0.51875  -0.49899  -0.49103
 Alpha  occ. eigenvalues --   -0.46695  -0.45015  -0.42008  -0.39787  -0.38639
 Alpha  occ. eigenvalues --   -0.36909  -0.33569  -0.29287  -0.24315
 Alpha virt. eigenvalues --   -0.02158  -0.00528   0.00914   0.01576   0.01946
 Alpha virt. eigenvalues --    0.04006   0.04835   0.05432   0.06160   0.07118
 Alpha virt. eigenvalues --    0.09543   0.09653   0.10241   0.10875   0.11823
 Alpha virt. eigenvalues --    0.12513   0.13128   0.13503   0.14451   0.15527
 Alpha virt. eigenvalues --    0.15775   0.16659   0.17072   0.19207   0.19406
 Alpha virt. eigenvalues --    0.21125   0.21190   0.22733   0.23409   0.23782
 Alpha virt. eigenvalues --    0.24523   0.26100   0.26324   0.27894   0.28962
 Alpha virt. eigenvalues --    0.30445   0.30902   0.31294   0.32068   0.33756
 Alpha virt. eigenvalues --    0.34747   0.35598   0.39002   0.44838   0.46297
 Alpha virt. eigenvalues --    0.46373   0.49698   0.51462   0.51899   0.54211
 Alpha virt. eigenvalues --    0.55012   0.55441   0.57638   0.58289   0.59515
 Alpha virt. eigenvalues --    0.60775   0.62923   0.63277   0.64636   0.65704
 Alpha virt. eigenvalues --    0.67197   0.68960   0.70426   0.73071   0.75367
 Alpha virt. eigenvalues --    0.77096   0.78593   0.80504   0.82855   0.85570
 Alpha virt. eigenvalues --    0.87472   0.89858   0.91648   0.96420   0.98719
 Alpha virt. eigenvalues --    0.99765   1.01481   1.02652   1.05035   1.07665
 Alpha virt. eigenvalues --    1.08320   1.10556   1.12422   1.15056   1.15161
 Alpha virt. eigenvalues --    1.17619   1.18262   1.20204   1.21328   1.22500
 Alpha virt. eigenvalues --    1.24462   1.27640   1.29747   1.31259   1.33756
 Alpha virt. eigenvalues --    1.34955   1.37766   1.39605   1.41280   1.43174
 Alpha virt. eigenvalues --    1.44188   1.46610   1.48720   1.51127   1.51951
 Alpha virt. eigenvalues --    1.53509   1.53821   1.59220   1.60098   1.66004
 Alpha virt. eigenvalues --    1.67174   1.70758   1.72836   1.75693   1.77717
 Alpha virt. eigenvalues --    1.79360   1.82906   1.91175   1.97182   2.05099
 Alpha virt. eigenvalues --    2.11566   2.17042   2.27237   2.29037   2.44532
 Alpha virt. eigenvalues --    2.51329   2.52611   2.54501   2.56340   2.65426
 Alpha virt. eigenvalues --    2.68431   2.72283   2.73744   2.75598   2.77702
 Alpha virt. eigenvalues --    2.82580   2.84716   2.91645   2.96489   2.99987
 Alpha virt. eigenvalues --    3.01971   3.04716   3.07991   3.09031   3.14750
 Alpha virt. eigenvalues --    3.15502   3.20152   3.23115   3.24460   3.28403
 Alpha virt. eigenvalues --    3.30586   3.32913   3.35256   3.37373   3.39709
 Alpha virt. eigenvalues --    3.42101   3.46968   3.48193   3.50386   3.52198
 Alpha virt. eigenvalues --    3.53390   3.58462   3.61411   3.63105   3.63641
 Alpha virt. eigenvalues --    3.67236   3.71493   3.76518   3.76859   3.81435
 Alpha virt. eigenvalues --    3.82390   3.84065   3.86437   3.90424   3.94160
 Alpha virt. eigenvalues --    3.95133   3.97140   4.00080   4.04432   4.06437
 Alpha virt. eigenvalues --    4.07267   4.11168   4.13163   4.20275   4.24181
 Alpha virt. eigenvalues --    4.26471   4.29156   4.32569   4.33015   4.40502
 Alpha virt. eigenvalues --    4.43067   4.49478   4.51586   4.54315   4.57869
 Alpha virt. eigenvalues --    4.62428   4.70426   4.76127   4.84866   4.87698
 Alpha virt. eigenvalues --    4.88728   4.97307   5.02563   5.05321   5.06525
 Alpha virt. eigenvalues --    5.09351   5.13155   5.14672   5.18521   5.22312
 Alpha virt. eigenvalues --    5.24213   5.28317   5.36492   5.37946   5.41397
 Alpha virt. eigenvalues --    5.42333   5.44706   5.49125   5.50954   5.55019
 Alpha virt. eigenvalues --    5.61700   5.69953   5.75494   5.77586   5.85589
 Alpha virt. eigenvalues --    5.87468   5.92428   6.20626   6.29201   6.47774
 Alpha virt. eigenvalues --    6.53532   6.79836   6.87613   6.92081   6.95559
 Alpha virt. eigenvalues --    6.98920   7.15371   7.17995   7.21623   7.27399
 Alpha virt. eigenvalues --    7.53651   7.62248   7.68892   7.72388  24.26173
 Alpha virt. eigenvalues --   24.40075  24.71389  35.75207  50.01587  50.14708
          Condensed to atoms (all electrons):
               1          2          3          4          5          6
     1  C    5.247683   0.111398   0.018568   0.156876  -0.031233  -0.051378
     2  C    0.111398   5.345764   0.119110  -0.101346  -0.039672  -0.010015
     3  N    0.018568   0.119110   6.643116  -0.010955   0.003126  -0.044096
     4  C    0.156876  -0.101346  -0.010955   5.145937   0.378077   0.279522
     5  O   -0.031233  -0.039672   0.003126   0.378077   8.241573  -0.098387
     6  O   -0.051378  -0.010015  -0.044096   0.279522  -0.098387   7.951403
     7  H    0.471395  -0.028622   0.008179  -0.082311  -0.002376   0.006238
     8  H    0.424888  -0.018892  -0.013527  -0.053944  -0.001466  -0.006822
     9  H   -0.033736   0.447352  -0.053471  -0.007662   0.001292  -0.000863
    10  H   -0.040142   0.428572  -0.066147  -0.001920  -0.000388  -0.002431
    11  H    0.006769  -0.054574   0.382497   0.005861   0.000016  -0.000263
    12  H   -0.002304  -0.018032   0.380357  -0.008761   0.000292  -0.000192
    13  H   -0.033496   0.002282   0.006999  -0.002075   0.018568   0.258784
               7          8          9         10         11         12
     1  C    0.471395   0.424888  -0.033736  -0.040142   0.006769  -0.002304
     2  C   -0.028622  -0.018892   0.447352   0.428572  -0.054574  -0.018032
     3  N    0.008179  -0.013527  -0.053471  -0.066147   0.382497   0.380357
     4  C   -0.082311  -0.053944  -0.007662  -0.001920   0.005861  -0.008761
     5  O   -0.002376  -0.001466   0.001292  -0.000388   0.000016   0.000292
     6  O    0.006238  -0.006822  -0.000863  -0.002431  -0.000263  -0.000192
     7  H    0.533531  -0.030054  -0.004118  -0.001855  -0.001032   0.000756
     8  H   -0.030054   0.548606   0.006930  -0.010258   0.001214  -0.000169
     9  H   -0.004118   0.006930   0.563705  -0.044012  -0.003580   0.006156
    10  H   -0.001855  -0.010258  -0.044012   0.624576  -0.003466  -0.005539
    11  H   -0.001032   0.001214  -0.003580  -0.003466   0.482555  -0.032550
    12  H    0.000756  -0.000169   0.006156  -0.005539  -0.032550   0.489153
    13  H   -0.001367   0.001462   0.000244  -0.000148   0.000226  -0.000162
              13
     1  C   -0.033496
     2  C    0.002282
     3  N    0.006999
     4  C   -0.002075
     5  O    0.018568
     6  O    0.258784
     7  H   -0.001367
     8  H    0.001462
     9  H    0.000244
    10  H   -0.000148
    11  H    0.000226
    12  H   -0.000162
    13  H    0.434010
 Mulliken charges:
               1
     1  C   -0.245287
     2  C   -0.183326
     3  N   -0.373755
     4  C    0.302700
     5  O   -0.469420
     6  O   -0.281500
     7  H    0.131637
     8  H    0.152032
     9  H    0.121763
    10  H    0.123157
    11  H    0.216327
    12  H    0.190996
    13  H    0.314675
 Sum of Mulliken charges =  -0.00000
 Mulliken charges with hydrogens summed into heavy atoms:
               1
     1  C    0.038382
     2  C    0.061594
     3  N    0.033568
     4  C    0.302700
     5  O   -0.469420
     6  O    0.033175
 Electronic spatial extent (au):  <R**2>=            620.8523
 Charge=             -0.0000 electrons
 Dipole moment (field-independent basis, Debye):
    X=             -3.4869    Y=             -0.0156    Z=              1.2469  Tot=              3.7032
 Quadrupole moment (field-independent basis, Debye-Ang):
   XX=            -37.2610   YY=            -36.1534   ZZ=            -34.9397
   XY=              5.8201   XZ=              0.9841   YZ=             -1.3062
 Traceless Quadrupole moment (field-independent basis, Debye-Ang):
   XX=             -1.1429   YY=             -0.0354   ZZ=              1.1783
   XY=              5.8201   XZ=              0.9841   YZ=             -1.3062
 Octapole moment (field-independent basis, Debye-Ang**2):
  XXX=            -28.3762  YYY=              5.8093  ZZZ=              1.6814  XYY=              6.7951
  XXY=             17.0472  XXZ=              2.2592  XZZ=             -2.7180  YZZ=              1.4707
  YYZ=             -0.2186  XYZ=             -4.8031
 Hexadecapole moment (field-independent basis, Debye-Ang**3):
 XXXX=           -495.3189 YYYY=           -189.7417 ZZZZ=            -75.6601 XXXY=             11.9184
 XXXZ=             17.6959 YYYX=             18.1300 YYYZ=             -2.6763 ZZZX=             -1.1669
 ZZZY=              1.5136 XXYY=           -106.1727 XXZZ=            -92.5351 YYZZ=            -47.3645
 XXYZ=             -4.6843 YYXZ=             -5.6709 ZZXY=             -0.4219
 N-N= 2.456370777023D+02 E-N=-1.250204193672D+03  KE= 3.225735477950D+02
 D1PCM: PCM CHGder 1st derivatives, ID1Alg=3 FixD1E=F DoIter=F DoCFld=F I1PDM=0.
 Calling FoFJK, ICntrl=      2127 FMM=F ISym2X=0 I1Cent= 0 IOpClX= 0 NMat=1 NMatS=1 NMatT=0.
 ***** Axes restored to original set *****
 -------------------------------------------------------------------
 Center     Atomic                   Forces (Hartrees/Bohr)
 Number     Number              X              Y              Z
 -------------------------------------------------------------------
      1        6          -0.003852446    0.000977610    0.011192267
      2        6           0.003928441    0.011893690   -0.008017932
      3        7           0.001835584   -0.005373250   -0.009778149
      4        6          -0.003098844   -0.015156188    0.011399678
      5        8           0.005872760    0.011806316   -0.009620499
      6        8          -0.007214479   -0.004880735    0.002129830
      7        1           0.001554985   -0.003229078   -0.005329321
      8        1          -0.002033452   -0.000147418   -0.004336120
      9        1           0.002844311   -0.000764713   -0.000013385
     10        1          -0.003422739   -0.000890658    0.009416434
     11        1           0.002330730   -0.000102353    0.003863510
     12        1          -0.005259499    0.002282130   -0.001564306
     13        1           0.006514647    0.003584649    0.000657994
 -------------------------------------------------------------------
 Cartesian Forces:  Max     0.015156188 RMS     0.006184492

 GradGradGradGradGradGradGradGradGradGradGradGradGradGradGradGradGradGrad
 Berny optimization.
 FormGI is forming the generalized inverse of G from B-inverse, IUseBI=4.
 Internal  Forces:  Max     0.017017729 RMS     0.004988165
 Search for a local minimum.
 Step number   1 out of a maximum of   64
 All quantities printed in internal units (Hartrees-Bohrs-Radians)
 Mixed Optimization -- RFO/linear search
 Second derivative matrix not updated -- first step.
 ITU=  0
     Eigenvalues ---    0.00434   0.00703   0.00947   0.01099   0.02410
     Eigenvalues ---    0.04040   0.04073   0.04268   0.05414   0.05508
     Eigenvalues ---    0.09448   0.09519   0.12849   0.12906   0.16000
     Eigenvalues ---    0.16000   0.16000   0.21936   0.21965   0.24991
     Eigenvalues ---    0.25000   0.29879   0.31880   0.33907   0.34095
     Eigenvalues ---    0.34175   0.34189   0.37436   0.44574   0.45115
     Eigenvalues ---    0.51954   0.55946   0.93767
 RFO step:  Lambda=-8.02304331D-03 EMin= 4.33630829D-03
 Linear search not attempted -- first point.
 Iteration  1 RMS(Cart)=  0.13497457 RMS(Int)=  0.00522453
 Iteration  2 RMS(Cart)=  0.00739873 RMS(Int)=  0.00060203
 Iteration  3 RMS(Cart)=  0.00001744 RMS(Int)=  0.00060187
 Iteration  4 RMS(Cart)=  0.00000002 RMS(Int)=  0.00060187
 Variable       Old X    -DE/DX   Delta X   Delta X   Delta X     New X
                                 (Linear)    (Quad)   (Total)
    R1        2.88206   0.00796   0.00000   0.02593   0.02593   2.90799
    R2        2.84365   0.00315   0.00000   0.00963   0.00963   2.85328
    R3        2.07488  -0.00631   0.00000  -0.01818  -0.01818   2.05670
    R4        2.07036  -0.00221   0.00000  -0.00631  -0.00631   2.06404
    R5        2.75194   0.00724   0.00000   0.01892   0.01892   2.77087
    R6        2.07012  -0.00285   0.00000  -0.00816  -0.00816   2.06196
    R7        2.07170  -0.00002   0.00000  -0.00005  -0.00005   2.07165
    R8        1.91842  -0.00348   0.00000  -0.00757  -0.00757   1.91085
    R9        1.92474  -0.00533   0.00000  -0.01175  -0.01175   1.91299
   R10        2.31244  -0.01529   0.00000  -0.01617  -0.01617   2.29627
   R11        2.54301  -0.00188   0.00000  -0.00332  -0.00332   2.53969
   R12        1.84644  -0.00640   0.00000  -0.01213  -0.01213   1.83431
    A1        1.96919   0.01702   0.00000   0.07721   0.07731   2.04650
    A2        1.89603  -0.00443   0.00000  -0.02570  -0.02511   1.87092
    A3        1.95286  -0.00584   0.00000  -0.02073  -0.02153   1.93133
    A4        1.87587  -0.00659   0.00000  -0.03856  -0.03796   1.83790
    A5        1.90662  -0.00454   0.00000  -0.00569  -0.00611   1.90051
    A6        1.85832   0.00359   0.00000   0.00848   0.00790   1.86622
    A7        1.96044   0.00929   0.00000   0.04789   0.04781   2.00825
    A8        1.92071  -0.00226   0.00000  -0.02193  -0.02248   1.89823
    A9        1.90589  -0.00870   0.00000  -0.05606  -0.05802   1.84787
   A10        1.90530  -0.00376   0.00000  -0.01411  -0.01350   1.89179
   A11        1.89520   0.00431   0.00000   0.06113   0.06191   1.95711
   A12        1.87414   0.00085   0.00000  -0.01873  -0.02024   1.85389
   A13        1.95234  -0.00345   0.00000  -0.03000  -0.03029   1.92205
   A14        1.93175   0.00153   0.00000  -0.00054  -0.00083   1.93092
   A15        1.89336  -0.00090   0.00000  -0.02302  -0.02360   1.86977
   A16        2.19145  -0.00668   0.00000  -0.02598  -0.02599   2.16546
   A17        1.98523   0.00432   0.00000   0.01667   0.01667   2.00190
   A18        2.10590   0.00236   0.00000   0.00906   0.00905   2.11495
   A19        1.85692   0.00354   0.00000   0.02108   0.02108   1.87800
    D1       -1.12226  -0.00005   0.00000  -0.06437  -0.06483  -1.18709
    D2        1.00436  -0.00010   0.00000  -0.06521  -0.06594   0.93843
    D3        3.05742  -0.00555   0.00000  -0.13408  -0.13308   2.92434
    D4        3.08280   0.00060   0.00000  -0.04685  -0.04705   3.03575
    D5       -1.07376   0.00055   0.00000  -0.04769  -0.04816  -1.12192
    D6        0.97930  -0.00490   0.00000  -0.11656  -0.11531   0.86399
    D7        1.03624   0.00240   0.00000  -0.02902  -0.02955   1.00669
    D8       -3.12032   0.00235   0.00000  -0.02986  -0.03066   3.13221
    D9       -1.06726  -0.00310   0.00000  -0.09873  -0.09781  -1.16507
   D10       -2.01601   0.00202   0.00000   0.12689   0.12739  -1.88862
   D11        1.16284   0.00212   0.00000   0.13421   0.13468   1.29751
   D12        0.07379   0.00241   0.00000   0.11593   0.11564   0.18942
   D13       -3.03056   0.00250   0.00000   0.12325   0.12292  -2.90764
   D14        2.08334   0.00079   0.00000   0.10242   0.10227   2.18561
   D15       -1.02101   0.00088   0.00000   0.10975   0.10956  -0.91145
   D16       -3.09813   0.00214   0.00000   0.02235   0.02135  -3.07678
   D17       -0.98453  -0.00030   0.00000  -0.02788  -0.02857  -1.01309
   D18        1.04968   0.00142   0.00000   0.02806   0.02773   1.07741
   D19       -3.11991  -0.00101   0.00000  -0.02216  -0.02218   3.14110
   D20       -0.98846   0.00007   0.00000   0.02406   0.02492  -0.96354
   D21        1.12514  -0.00236   0.00000  -0.02617  -0.02499   1.10014
   D22       -3.01528  -0.00311   0.00000  -0.09588  -0.09594  -3.11123
   D23        0.16153  -0.00280   0.00000  -0.08811  -0.08805   0.07348
         Item               Value     Threshold  Converged?
 Maximum Force            0.017018     0.000450     NO 
 RMS     Force            0.004988     0.000300     NO 
 Maximum Displacement     0.384502     0.001800     NO 
 RMS     Displacement     0.134044     0.001200     NO 
 Predicted change in Energy=-4.721749D-03
 GradGradGradGradGradGradGradGradGradGradGradGradGradGradGradGradGradGrad

                          Input orientation:                          
 ---------------------------------------------------------------------
 Center     Atomic      Atomic             Coordinates (Angstroms)
 Number     Number       Type             X           Y           Z
 ---------------------------------------------------------------------
      1          6           0        0.947598   -0.094707   -0.203671
      2          6           0        0.470775    0.910643   -1.266663
      3          7           0        0.936133    0.640053   -2.630555
      4          6           0        0.400581   -1.499612   -0.286002
      5          8           0       -0.407327   -1.962430    0.494792
      6          8           0        0.917901   -2.246569   -1.276271
      7          1           0        0.624384    0.283133    0.764467
      8          1           0        2.038586   -0.140882   -0.178917
      9          1           0       -0.620263    0.925038   -1.271665
     10          1           0        0.788410    1.897411   -0.910001
     11          1           0        0.631741    1.375392   -3.254340
     12          1           0        1.947656    0.619640   -2.664885
     13          1           0        0.478104   -3.111552   -1.251931
 ---------------------------------------------------------------------
                    Distance matrix (angstroms):
                    1          2          3          4          5
     1  C    0.000000
     2  C    1.538844   0.000000
     3  N    2.535699   1.466280   0.000000
     4  C    1.509889   2.603066   3.218992   0.000000
     5  O    2.410821   3.482575   4.283175   1.215135   0.000000
     6  O    2.404551   3.188730   3.188574   1.343948   2.230163
     7  H    1.088357   2.131397   3.427937   2.081287   2.485901
     8  H    1.092245   2.178744   2.799248   2.130885   3.123204
     9  H    2.153759   1.091144   2.085705   2.809375   3.391634
    10  H    2.119617   1.096272   2.136136   3.475566   4.278037
    11  H    3.401108   2.047623   1.011180   4.138854   5.126080
    12  H    2.750997   2.054480   1.012312   3.541717   4.711325
    13  H    3.228100   4.022228   4.023050   1.880791   2.270574
                    6          7          8          9         10
     6  O    0.000000
     7  H    3.263458   0.000000
     8  H    2.625650   1.752064   0.000000
     9  H    3.524920   2.471239   3.065903   0.000000
    10  H    4.162150   2.331661   2.500413   1.749476   0.000000
    11  H    4.136816   4.164600   3.706282   2.387746   2.406860
    12  H    3.347208   3.691171   2.601289   2.937437   2.460929
    13  H    0.970675   3.951094   3.522973   4.183402   5.030200
                   11         12         13
    11  H    0.000000
    12  H    1.627959   0.000000
    13  H    4.915883   4.251802   0.000000
 Stoichiometry    C3H7NO2
 Framework group  C1[X(C3H7NO2)]
 Deg. of freedom    33
 Full point group                 C1      NOp   1
 Largest Abelian subgroup         C1      NOp   1
 Largest concise Abelian subgroup C1      NOp   1
                         Standard orientation:                         
 ---------------------------------------------------------------------
 Center     Atomic      Atomic             Coordinates (Angstroms)
 Number     Number       Type             X           Y           Z
 ---------------------------------------------------------------------
      1          6           0       -0.146052   -0.762645    0.599939
      2          6           0       -1.454458   -0.654311   -0.202793
      3          7           0       -2.056929    0.682176   -0.231210
      4          6           0        1.065195   -0.050387    0.047368
      5          8           0        2.019112   -0.615358   -0.450028
      6          8           0        1.045351    1.285666    0.191472
      7          1           0        0.127895   -1.815583    0.628147
      8          1           0       -0.301054   -0.446570    1.633897
      9          1           0       -1.262715   -0.967427   -1.230309
     10          1           0       -2.131264   -1.403485    0.224389
     11          1           0       -2.939320    0.655629   -0.724330
     12          1           0       -2.249942    1.006516    0.708111
     13          1           0        1.851086    1.637283   -0.220069
 ---------------------------------------------------------------------
 Rotational constants (GHZ):           6.5779412           2.3033572           1.8999377
 Standard basis: 6-311++G(2df,2p) (5D, 7F)
 There are   304 symmetry adapted cartesian basis functions of A   symmetry.
 There are   274 symmetry adapted basis functions of A   symmetry.
   274 basis functions,   396 primitive gaussians,   304 cartesian basis functions
    24 alpha electrons       24 beta electrons
       nuclear repulsion energy       242.3957373992 Hartrees.
 NAtoms=   13 NActive=   13 NUniq=   13 SFac= 1.00D+00 NAtFMM=   60 NAOKFM=F Big=F
 Integral buffers will be    131072 words long.
 Raffenetti 2 integral format.
 Two-electron integral symmetry is turned on.
 ------------------------------------------------------------------------------
 Polarizable Continuum Model (PCM)
 =================================
 Model                : PCM.
 Atomic radii         : UFF (Universal Force Field).
 Polarization charges : Total charges.
 Charge compensation  : None.
 Solution method      : On-the-fly selection.
 Cavity type          : Scaled VdW (van der Waals Surface) (Alpha=1.100).
 Cavity algorithm     : GePol (No added spheres)
                        Default sphere list used, NSphG=   13.
                        Lebedev-Laikov grids with approx.  5.0 points / Ang**2.
                        Smoothing algorithm: York/Karplus (Gamma=1.0000).
                        Polarization charges: spherical gaussians, with
                                              point-specific exponents (IZeta= 3).
                        Self-potential: point-specific (ISelfS= 7).
                        Self-field    : sphere-specific E.n sum rule (ISelfD= 2).
 1st derivatives      : Analytical E(r).r(x)/FMM algorithm (CHGder, D1EAlg=3).
                        Cavity 1st derivative terms included.
 Solvent              : Water, Eps=  78.355300 Eps(inf)=   1.777849
 ------------------------------------------------------------------------------
 Spheres list:
 ISph  on   Nord     Re0    Alpha      Xe            Ye            Ze
    1   C      1    1.9255  1.100     -0.146052     -0.762645      0.599939
    2   C      2    1.9255  1.100     -1.454458     -0.654311     -0.202793
    3   N      3    1.8300  1.100     -2.056929      0.682176     -0.231210
    4   C      4    1.9255  1.100      1.065195     -0.050387      0.047368
    5   O      5    1.7500  1.100      2.019112     -0.615358     -0.450028
    6   O      6    1.7500  1.100      1.045351      1.285666      0.191472
    7   H      7    1.4430  1.100      0.127895     -1.815583      0.628147
    8   H      8    1.4430  1.100     -0.301054     -0.446570      1.633897
    9   H      9    1.4430  1.100     -1.262715     -0.967427     -1.230309
   10   H     10    1.4430  1.100     -2.131264     -1.403485      0.224389
   11   H     11    1.4430  1.100     -2.939320      0.655629     -0.724330
   12   H     12    1.4430  1.100     -2.249942      1.006516      0.708111
   13   H     13    1.4430  1.100      1.851086      1.637283     -0.220069
 ------------------------------------------------------------------------------
 One-electron integrals computed using PRISM.
 NBasis=   274 RedAO= T EigKep=  3.20D-05  NBF=   274
 NBsUse=   274 1.00D-06 EigRej= -1.00D+00 NBFU=   274
 Initial guess from the checkpoint file:  "beta-alanine_298K.chk"
 B after Tr=    -0.000000    0.000000   -0.000000
         Rot=    0.999365    0.032136   -0.005883    0.014239 Ang=   4.08 deg.
 ExpMin= 3.60D-02 ExpMax= 8.59D+03 ExpMxC= 1.30D+03 IAcc=3 IRadAn=         5 AccDes= 0.00D+00
 Harris functional with IExCor=  402 and IRadAn=       5 diagonalized for initial guess.
 HarFok:  IExCor=  402 AccDes= 0.00D+00 IRadAn=         5 IDoV= 1 UseB2=F ITyADJ=14
 ICtDFT=  3500011 ScaDFX=  1.000000  1.000000  1.000000  1.000000
 FoFCou: FMM=F IPFlag=           0 FMFlag=      100000 FMFlg1=           0
         NFxFlg=           0 DoJE=T BraDBF=F KetDBF=T FulRan=T
         wScrn=  0.000000 ICntrl=       500 IOpCl=  0 I1Cent=   200000004 NGrid=           0
         NMat0=    1 NMatS0=      1 NMatT0=    0 NMatD0=    1 NMtDS0=    0 NMtDT0=    0
 Petite list used in FoFCou.
 Requested convergence on RMS density matrix=1.00D-08 within 128 cycles.
 Requested convergence on MAX density matrix=1.00D-06.
 Requested convergence on             energy=1.00D-06.
 No special actions if energy rises.
 Inv3:  Mode=1 IEnd=     4009008.
 Iteration    1 A*A^-1 deviation from unit magnitude is 3.11D-15 for    910.
 Iteration    1 A*A^-1 deviation from orthogonality  is 2.68D-15 for    582    205.
 Iteration    1 A^-1*A deviation from unit magnitude is 2.78D-15 for    783.
 Iteration    1 A^-1*A deviation from orthogonality  is 2.44D-15 for    872    235.
 Error on total polarization charges =  0.01168
 SCF Done:  E(RB3LYP) =  -323.877888168     A.U. after   11 cycles
            NFock= 11  Conv=0.29D-08     -V/T= 2.0040
 D1PCM: PCM CHGder 1st derivatives, ID1Alg=3 FixD1E=F DoIter=F DoCFld=F I1PDM=0.
 Calling FoFJK, ICntrl=      2127 FMM=F ISym2X=0 I1Cent= 0 IOpClX= 0 NMat=1 NMatS=1 NMatT=0.
 ***** Axes restored to original set *****
 -------------------------------------------------------------------
 Center     Atomic                   Forces (Hartrees/Bohr)
 Number     Number              X              Y              Z
 -------------------------------------------------------------------
      1        6           0.000178961   -0.000444902    0.001164439
      2        6          -0.000700679    0.002516881   -0.000493276
      3        7          -0.000738737   -0.005412263    0.003746112
      4        6          -0.001595038   -0.003242637    0.004132958
      5        8           0.000432666    0.003349271   -0.003616133
      6        8          -0.000357561    0.001907845   -0.001745954
      7        1           0.000619122    0.000487514   -0.000192872
      8        1           0.000025880   -0.000527823   -0.002881382
      9        1          -0.000158909   -0.000441430   -0.000962579
     10        1          -0.000004757   -0.000476802    0.000947087
     11        1          -0.000265511    0.000921354   -0.000207628
     12        1           0.001054931    0.001068750   -0.000165191
     13        1           0.001509631    0.000294242    0.000274419
 -------------------------------------------------------------------
 Cartesian Forces:  Max     0.005412263 RMS     0.001833874

 GradGradGradGradGradGradGradGradGradGradGradGradGradGradGradGradGradGrad
 Berny optimization.
 Using GEDIIS/GDIIS optimizer.
 FormGI is forming the generalized inverse of G from B-inverse, IUseBI=4.
 Internal  Forces:  Max     0.006384027 RMS     0.001825707
 Search for a local minimum.
 Step number   2 out of a maximum of   64
 All quantities printed in internal units (Hartrees-Bohrs-Radians)
 Mixed Optimization -- RFO/linear search
 Update second derivatives using D2CorX and points    1    2
 DE= -3.45D-03 DEPred=-4.72D-03 R= 7.30D-01
 TightC=F SS=  1.41D+00  RLast= 4.31D-01 DXNew= 5.0454D-01 1.2933D+00
 Trust test= 7.30D-01 RLast= 4.31D-01 DXMaxT set to 5.05D-01
 ITU=  1  0
 Use linear search instead of GDIIS.
     Eigenvalues ---    0.00459   0.00728   0.00949   0.01128   0.02334
     Eigenvalues ---    0.03785   0.03954   0.04277   0.05399   0.05740
     Eigenvalues ---    0.09368   0.10159   0.12704   0.13339   0.15850
     Eigenvalues ---    0.16000   0.16005   0.21689   0.23805   0.24765
     Eigenvalues ---    0.27435   0.30832   0.32467   0.33846   0.34096
     Eigenvalues ---    0.34172   0.34203   0.38139   0.44681   0.45220
     Eigenvalues ---    0.51715   0.55954   0.91915
 RFO step:  Lambda=-1.34640656D-03 EMin= 4.58694638D-03
 Quartic linear search produced a step of -0.05561.
 Iteration  1 RMS(Cart)=  0.04014585 RMS(Int)=  0.00128668
 Iteration  2 RMS(Cart)=  0.00127943 RMS(Int)=  0.00035310
 Iteration  3 RMS(Cart)=  0.00000042 RMS(Int)=  0.00035310
 Variable       Old X    -DE/DX   Delta X   Delta X   Delta X     New X
                                 (Linear)    (Quad)   (Total)
    R1        2.90799  -0.00290  -0.00144  -0.00454  -0.00599   2.90201
    R2        2.85328  -0.00211  -0.00054  -0.00448  -0.00501   2.84827
    R3        2.05670  -0.00019   0.00101  -0.00364  -0.00263   2.05407
    R4        2.06404  -0.00001   0.00035  -0.00112  -0.00077   2.06328
    R5        2.77087  -0.00248  -0.00105  -0.00291  -0.00396   2.76691
    R6        2.06196   0.00016   0.00045  -0.00096  -0.00051   2.06145
    R7        2.07165  -0.00012   0.00000  -0.00035  -0.00034   2.07131
    R8        1.91085   0.00088   0.00042   0.00051   0.00093   1.91179
    R9        1.91299   0.00103   0.00065   0.00012   0.00077   1.91376
   R10        2.29627  -0.00389   0.00090  -0.00664  -0.00574   2.29053
   R11        2.53969   0.00030   0.00018  -0.00008   0.00011   2.53980
   R12        1.83431  -0.00094   0.00067  -0.00377  -0.00309   1.83122
    A1        2.04650  -0.00451  -0.00430  -0.00968  -0.01419   2.03231
    A2        1.87092   0.00096   0.00140   0.00709   0.00856   1.87949
    A3        1.93133   0.00034   0.00120  -0.01524  -0.01429   1.91704
    A4        1.83790   0.00221   0.00211   0.01438   0.01652   1.85443
    A5        1.90051   0.00126   0.00034  -0.00800  -0.00804   1.89247
    A6        1.86622   0.00020  -0.00044   0.01622   0.01588   1.88210
    A7        2.00825  -0.00638  -0.00266  -0.02181  -0.02451   1.98373
    A8        1.89823   0.00213   0.00125   0.00100   0.00209   1.90032
    A9        1.84787   0.00133   0.00323  -0.00409  -0.00061   1.84726
   A10        1.89179   0.00108   0.00075  -0.00566  -0.00513   1.88667
   A11        1.95711   0.00278  -0.00344   0.02737   0.02389   1.98100
   A12        1.85389  -0.00054   0.00113   0.00483   0.00600   1.85989
   A13        1.92205  -0.00079   0.00168  -0.01253  -0.01089   1.91116
   A14        1.93092  -0.00018   0.00005  -0.00393  -0.00392   1.92700
   A15        1.86977  -0.00009   0.00131  -0.01018  -0.00895   1.86081
   A16        2.16546   0.00095   0.00145   0.00021   0.00027   2.16573
   A17        2.00190  -0.00445  -0.00093  -0.01241  -0.01474   1.98716
   A18        2.11495   0.00355  -0.00050   0.01600   0.01409   2.12904
   A19        1.87800   0.00095  -0.00117   0.00910   0.00792   1.88592
    D1       -1.18709   0.00131   0.00361   0.01023   0.01377  -1.17331
    D2        0.93843  -0.00006   0.00367  -0.01141  -0.00777   0.93066
    D3        2.92434   0.00096   0.00740  -0.00742  -0.00019   2.92415
    D4        3.03575   0.00058   0.00262  -0.00753  -0.00491   3.03084
    D5       -1.12192  -0.00079   0.00268  -0.02917  -0.02646  -1.14838
    D6        0.86399   0.00023   0.00641  -0.02518  -0.01887   0.84512
    D7        1.00669  -0.00038   0.00164  -0.02285  -0.02108   0.98561
    D8        3.13221  -0.00175   0.00171  -0.04449  -0.04262   3.08958
    D9       -1.16507  -0.00073   0.00544  -0.04050  -0.03504  -1.20011
   D10       -1.88862   0.00050  -0.00708   0.11170   0.10454  -1.78408
   D11        1.29751  -0.00083  -0.00749   0.01441   0.00707   1.30458
   D12        0.18942   0.00065  -0.00643   0.12560   0.11905   0.30847
   D13       -2.90764  -0.00068  -0.00684   0.02831   0.02158  -2.88605
   D14        2.18561   0.00256  -0.00569   0.14780   0.14196   2.32757
   D15       -0.91145   0.00122  -0.00609   0.05051   0.04449  -0.86695
   D16       -3.07678   0.00011  -0.00119  -0.01778  -0.01882  -3.09560
   D17       -1.01309  -0.00060   0.00159  -0.04061  -0.03882  -1.05191
   D18        1.07741   0.00089  -0.00154   0.00013  -0.00146   1.07595
   D19        3.14110   0.00017   0.00123  -0.02269  -0.02147   3.11963
   D20       -0.96354  -0.00074  -0.00139  -0.01811  -0.01967  -0.98321
   D21        1.10014  -0.00145   0.00139  -0.04094  -0.03967   1.06047
   D22       -3.11123  -0.00039   0.00534  -0.00443   0.00119  -3.11004
   D23        0.07348  -0.00161   0.00490  -0.09821  -0.09361  -0.02013
         Item               Value     Threshold  Converged?
 Maximum Force            0.006384     0.000450     NO 
 RMS     Force            0.001826     0.000300     NO 
 Maximum Displacement     0.123984     0.001800     NO 
 RMS     Displacement     0.040597     0.001200     NO 
 Predicted change in Energy=-7.776366D-04
 GradGradGradGradGradGradGradGradGradGradGradGradGradGradGradGradGradGrad

                          Input orientation:                          
 ---------------------------------------------------------------------
 Center     Atomic      Atomic             Coordinates (Angstroms)
 Number     Number       Type             X           Y           Z
 ---------------------------------------------------------------------
      1          6           0        0.957479   -0.087633   -0.191017
      2          6           0        0.469128    0.909518   -1.251914
      3          7           0        0.929272    0.598432   -2.606659
      4          6           0        0.407353   -1.487911   -0.282377
      5          8           0       -0.472936   -1.919781    0.430194
      6          8           0        0.937577   -2.216236   -1.279750
      7          1           0        0.659376    0.293389    0.782356
      8          1           0        2.047756   -0.143250   -0.208803
      9          1           0       -0.621726    0.913422   -1.257075
     10          1           0        0.783488    1.898789   -0.899873
     11          1           0        0.609290    1.315160   -3.244934
     12          1           0        1.941184    0.606037   -2.646387
     13          1           0        0.507040   -3.084378   -1.279402
 ---------------------------------------------------------------------
                    Distance matrix (angstroms):
                    1          2          3          4          5
     1  C    0.000000
     2  C    1.535676   0.000000
     3  N    2.511336   1.464186   0.000000
     4  C    1.507238   2.586791   3.166626   0.000000
     5  O    2.405984   3.423727   4.186891   1.212096   0.000000
     6  O    2.390960   3.160784   3.111770   1.344005   2.236368
     7  H    1.086967   2.134025   3.413402   2.090503   2.510831
     8  H    1.091840   2.165287   2.747874   2.122370   3.149329
     9  H    2.152320   1.090873   2.079950   2.788448   3.300917
    10  H    2.116275   1.096089   2.150651   3.463021   4.234283
    11  H    3.378680   2.038706   1.011673   4.083471   5.014242
    12  H    2.734538   2.050270   1.012720   3.510813   4.655436
    13  H    3.219932   3.994171   3.937383   1.884862   2.288964
                    6          7          8          9         10
     6  O    0.000000
     7  H    3.260045   0.000000
     8  H    2.583931   1.760865   0.000000
     9  H    3.496670   2.486955   3.056398   0.000000
    10  H    4.135393   2.328649   2.499175   1.753045   0.000000
    11  H    4.054686   4.155188   3.662545   2.372421   2.422866
    12  H    3.292438   3.673834   2.552372   2.931414   2.462068
    13  H    0.969038   3.960223   3.488585   4.154157   5.005239
                   11         12         13
    11  H    0.000000
    12  H    1.623286   0.000000
    13  H    4.819721   4.188626   0.000000
 Stoichiometry    C3H7NO2
 Framework group  C1[X(C3H7NO2)]
 Deg. of freedom    33
 Full point group                 C1      NOp   1
 Largest Abelian subgroup         C1      NOp   1
 Largest concise Abelian subgroup C1      NOp   1
                         Standard orientation:                         
 ---------------------------------------------------------------------
 Center     Atomic      Atomic             Coordinates (Angstroms)
 Number     Number       Type             X           Y           Z
 ---------------------------------------------------------------------
      1          6           0       -0.148977   -0.760126    0.631219
      2          6           0       -1.437919   -0.662002   -0.197815
      3          7           0       -1.997329    0.689833   -0.256484
      4          6           0        1.062211   -0.056537    0.074666
      5          8           0        1.972645   -0.618850   -0.494622
      6          8           0        1.022599    1.280397    0.206528
      7          1           0        0.117065   -1.811456    0.704872
      8          1           0       -0.329484   -0.389213    1.642137
      9          1           0       -1.227060   -0.986052   -1.217882
     10          1           0       -2.125280   -1.401360    0.229145
     11          1           0       -2.863584    0.674492   -0.778835
     12          1           0       -2.225930    1.018115    0.673879
     13          1           0        1.821732    1.646258   -0.201598
 ---------------------------------------------------------------------
 Rotational constants (GHZ):           6.4374175           2.3786655           1.9615404
 Standard basis: 6-311++G(2df,2p) (5D, 7F)
 There are   304 symmetry adapted cartesian basis functions of A   symmetry.
 There are   274 symmetry adapted basis functions of A   symmetry.
   274 basis functions,   396 primitive gaussians,   304 cartesian basis functions
    24 alpha electrons       24 beta electrons
       nuclear repulsion energy       243.6334017098 Hartrees.
 NAtoms=   13 NActive=   13 NUniq=   13 SFac= 1.00D+00 NAtFMM=   60 NAOKFM=F Big=F
 Integral buffers will be    131072 words long.
 Raffenetti 2 integral format.
 Two-electron integral symmetry is turned on.
 ------------------------------------------------------------------------------
 Polarizable Continuum Model (PCM)
 =================================
 Model                : PCM.
 Atomic radii         : UFF (Universal Force Field).
 Polarization charges : Total charges.
 Charge compensation  : None.
 Solution method      : On-the-fly selection.
 Cavity type          : Scaled VdW (van der Waals Surface) (Alpha=1.100).
 Cavity algorithm     : GePol (No added spheres)
                        Default sphere list used, NSphG=   13.
                        Lebedev-Laikov grids with approx.  5.0 points / Ang**2.
                        Smoothing algorithm: York/Karplus (Gamma=1.0000).
                        Polarization charges: spherical gaussians, with
                                              point-specific exponents (IZeta= 3).
                        Self-potential: point-specific (ISelfS= 7).
                        Self-field    : sphere-specific E.n sum rule (ISelfD= 2).
 1st derivatives      : Analytical E(r).r(x)/FMM algorithm (CHGder, D1EAlg=3).
                        Cavity 1st derivative terms included.
 Solvent              : Water, Eps=  78.355300 Eps(inf)=   1.777849
 ------------------------------------------------------------------------------
 Spheres list:
 ISph  on   Nord     Re0    Alpha      Xe            Ye            Ze
    1   C      1    1.9255  1.100     -0.148977     -0.760126      0.631219
    2   C      2    1.9255  1.100     -1.437919     -0.662002     -0.197815
    3   N      3    1.8300  1.100     -1.997329      0.689833     -0.256484
    4   C      4    1.9255  1.100      1.062211     -0.056537      0.074666
    5   O      5    1.7500  1.100      1.972645     -0.618850     -0.494622
    6   O      6    1.7500  1.100      1.022599      1.280397      0.206528
    7   H      7    1.4430  1.100      0.117065     -1.811456      0.704872
    8   H      8    1.4430  1.100     -0.329484     -0.389213      1.642137
    9   H      9    1.4430  1.100     -1.227060     -0.986052     -1.217882
   10   H     10    1.4430  1.100     -2.125280     -1.401360      0.229145
   11   H     11    1.4430  1.100     -2.863584      0.674492     -0.778835
   12   H     12    1.4430  1.100     -2.225930      1.018115      0.673879
   13   H     13    1.4430  1.100      1.821732      1.646258     -0.201598
 ------------------------------------------------------------------------------
 One-electron integrals computed using PRISM.
 NBasis=   274 RedAO= T EigKep=  3.27D-05  NBF=   274
 NBsUse=   274 1.00D-06 EigRej= -1.00D+00 NBFU=   274
 Initial guess from the checkpoint file:  "beta-alanine_298K.chk"
 B after Tr=     0.000000   -0.000000   -0.000000
         Rot=    0.999995    0.002555    0.001016    0.001664 Ang=   0.37 deg.
 ExpMin= 3.60D-02 ExpMax= 8.59D+03 ExpMxC= 1.30D+03 IAcc=3 IRadAn=         5 AccDes= 0.00D+00
 Harris functional with IExCor=  402 and IRadAn=       5 diagonalized for initial guess.
 HarFok:  IExCor=  402 AccDes= 0.00D+00 IRadAn=         5 IDoV= 1 UseB2=F ITyADJ=14
 ICtDFT=  3500011 ScaDFX=  1.000000  1.000000  1.000000  1.000000
 FoFCou: FMM=F IPFlag=           0 FMFlag=      100000 FMFlg1=           0
         NFxFlg=           0 DoJE=T BraDBF=F KetDBF=T FulRan=T
         wScrn=  0.000000 ICntrl=       500 IOpCl=  0 I1Cent=   200000004 NGrid=           0
         NMat0=    1 NMatS0=      1 NMatT0=    0 NMatD0=    1 NMtDS0=    0 NMtDT0=    0
 Petite list used in FoFCou.
 Requested convergence on RMS density matrix=1.00D-08 within 128 cycles.
 Requested convergence on MAX density matrix=1.00D-06.
 Requested convergence on             energy=1.00D-06.
 No special actions if energy rises.
 Inv3:  Mode=1 IEnd=     3946827.
 Iteration    1 A*A^-1 deviation from unit magnitude is 3.22D-15 for    402.
 Iteration    1 A*A^-1 deviation from orthogonality  is 1.58D-15 for    583    150.
 Iteration    1 A^-1*A deviation from unit magnitude is 3.00D-15 for    402.
 Iteration    1 A^-1*A deviation from orthogonality  is 1.78D-15 for   1024     92.
 Error on total polarization charges =  0.01162
 SCF Done:  E(RB3LYP) =  -323.878487837     A.U. after   10 cycles
            NFock= 10  Conv=0.37D-08     -V/T= 2.0039
 D1PCM: PCM CHGder 1st derivatives, ID1Alg=3 FixD1E=F DoIter=F DoCFld=F I1PDM=0.
 Calling FoFJK, ICntrl=      2127 FMM=F ISym2X=0 I1Cent= 0 IOpClX= 0 NMat=1 NMatS=1 NMatT=0.
 ***** Axes restored to original set *****
 -------------------------------------------------------------------
 Center     Atomic                   Forces (Hartrees/Bohr)
 Number     Number              X              Y              Z
 -------------------------------------------------------------------
      1        6           0.005010218   -0.002380542    0.003022841
      2        6          -0.002406303   -0.001256710    0.000113096
      3        7          -0.000456156   -0.000336293    0.002159165
      4        6          -0.008653637    0.004619212   -0.006119748
      5        8           0.001572722   -0.001657464    0.001180849
      6        8           0.003051631   -0.000614079    0.002436147
      7        1           0.000731191    0.000164859    0.000767011
      8        1           0.000393362    0.000899329   -0.000979518
      9        1          -0.000431244    0.000351472   -0.000424504
     10        1           0.000465631   -0.000047261   -0.000854793
     11        1          -0.000293558    0.000463632   -0.001155959
     12        1           0.001135981    0.000429270   -0.000143380
     13        1          -0.000119838   -0.000635426   -0.000001208
 -------------------------------------------------------------------
 Cartesian Forces:  Max     0.008653637 RMS     0.002354750

 GradGradGradGradGradGradGradGradGradGradGradGradGradGradGradGradGradGrad
 Berny optimization.
 Using GEDIIS/GDIIS optimizer.
 FormGI is forming the generalized inverse of G from B-inverse, IUseBI=4.
 Internal  Forces:  Max     0.004251997 RMS     0.001134781
 Search for a local minimum.
 Step number   3 out of a maximum of   64
 All quantities printed in internal units (Hartrees-Bohrs-Radians)
 Mixed Optimization -- RFO/linear search
 Update second derivatives using D2CorX and points    2    3
 DE= -6.00D-04 DEPred=-7.78D-04 R= 7.71D-01
 TightC=F SS=  1.41D+00  RLast= 2.62D-01 DXNew= 8.4853D-01 7.8659D-01
 Trust test= 7.71D-01 RLast= 2.62D-01 DXMaxT set to 7.87D-01
 ITU=  1  1  0
 Use linear search instead of GDIIS.
     Eigenvalues ---    0.00423   0.00461   0.00940   0.02010   0.02810
     Eigenvalues ---    0.04070   0.04375   0.04682   0.05408   0.05788
     Eigenvalues ---    0.09364   0.09867   0.12649   0.13302   0.15865
     Eigenvalues ---    0.16005   0.16064   0.21511   0.22718   0.24873
     Eigenvalues ---    0.25141   0.30635   0.32179   0.33814   0.34096
     Eigenvalues ---    0.34173   0.34186   0.37538   0.44561   0.45116
     Eigenvalues ---    0.51793   0.55949   0.91734
 RFO step:  Lambda=-1.81023542D-03 EMin= 4.22659777D-03
 Quartic linear search produced a step of -0.13263.
 Iteration  1 RMS(Cart)=  0.06604468 RMS(Int)=  0.00432393
 Iteration  2 RMS(Cart)=  0.00642248 RMS(Int)=  0.00046038
 Iteration  3 RMS(Cart)=  0.00005416 RMS(Int)=  0.00045914
 Iteration  4 RMS(Cart)=  0.00000001 RMS(Int)=  0.00045914
 Variable       Old X    -DE/DX   Delta X   Delta X   Delta X     New X
                                 (Linear)    (Quad)   (Total)
    R1        2.90201   0.00060   0.00079  -0.00885  -0.00805   2.89395
    R2        2.84827   0.00007   0.00066  -0.00748  -0.00682   2.84145
    R3        2.05407   0.00054   0.00035  -0.00071  -0.00036   2.05370
    R4        2.06328   0.00037   0.00010   0.00036   0.00046   2.06374
    R5        2.76691  -0.00080   0.00052  -0.00874  -0.00822   2.75870
    R6        2.06145   0.00044   0.00007   0.00103   0.00110   2.06255
    R7        2.07131  -0.00018   0.00005  -0.00089  -0.00084   2.07047
    R8        1.91179   0.00116  -0.00012   0.00395   0.00383   1.91562
    R9        1.91376   0.00114  -0.00010   0.00409   0.00399   1.91776
   R10        2.29053   0.00014   0.00076  -0.00628  -0.00551   2.28502
   R11        2.53980   0.00004  -0.00001   0.00049   0.00048   2.54028
   R12        1.83122   0.00062   0.00041  -0.00220  -0.00179   1.82943
    A1        2.03231  -0.00425   0.00188  -0.04171  -0.04013   1.99217
    A2        1.87949   0.00101  -0.00114   0.01481   0.01407   1.89356
    A3        1.91704   0.00055   0.00189  -0.01701  -0.01566   1.90138
    A4        1.85443   0.00128  -0.00219   0.02883   0.02681   1.88124
    A5        1.89247   0.00215   0.00107   0.00029   0.00037   1.89284
    A6        1.88210  -0.00056  -0.00211   0.02107   0.01889   1.90100
    A7        1.98373  -0.00102   0.00325  -0.04147  -0.03827   1.94546
    A8        1.90032   0.00059  -0.00028   0.01028   0.00975   1.91007
    A9        1.84726   0.00087   0.00008   0.00742   0.00755   1.85481
   A10        1.88667   0.00028   0.00068  -0.00373  -0.00315   1.88352
   A11        1.98100  -0.00055  -0.00317   0.01958   0.01641   1.99741
   A12        1.85989  -0.00008  -0.00080   0.01121   0.01029   1.87018
   A13        1.91116   0.00083   0.00144  -0.00781  -0.00640   1.90477
   A14        1.92700  -0.00015   0.00052  -0.00569  -0.00520   1.92180
   A15        1.86081  -0.00031   0.00119  -0.01119  -0.01008   1.85074
   A16        2.16573   0.00165  -0.00004   0.00920   0.00744   2.17318
   A17        1.98716  -0.00097   0.00195  -0.02294  -0.02272   1.96444
   A18        2.12904  -0.00050  -0.00187   0.01848   0.01487   2.14391
   A19        1.88592   0.00021  -0.00105   0.00994   0.00889   1.89481
    D1       -1.17331  -0.00051  -0.00183   0.00547   0.00343  -1.16989
    D2        0.93066  -0.00040   0.00103  -0.01916  -0.01841   0.91225
    D3        2.92415   0.00022   0.00002   0.00230   0.00209   2.92625
    D4        3.03084  -0.00018   0.00065  -0.01596  -0.01529   3.01555
    D5       -1.14838  -0.00007   0.00351  -0.04059  -0.03712  -1.18550
    D6        0.84512   0.00055   0.00250  -0.01914  -0.01663   0.82849
    D7        0.98561  -0.00039   0.00280  -0.04030  -0.03723   0.94838
    D8        3.08958  -0.00029   0.00565  -0.06493  -0.05907   3.03051
    D9       -1.20011   0.00034   0.00465  -0.04348  -0.03857  -1.23868
   D10       -1.78408  -0.00106  -0.01386   0.07618   0.06257  -1.72151
   D11        1.30458   0.00249  -0.00094   0.17690   0.17602   1.48060
   D12        0.30847  -0.00146  -0.01579   0.09054   0.07466   0.38313
   D13       -2.88605   0.00209  -0.00286   0.19126   0.18811  -2.69794
   D14        2.32757  -0.00042  -0.01883   0.12983   0.11113   2.43870
   D15       -0.86695   0.00313  -0.00590   0.23054   0.22458  -0.64238
   D16       -3.09560  -0.00009   0.00250  -0.03292  -0.03030  -3.12590
   D17       -1.05191  -0.00006   0.00515  -0.05458  -0.04927  -1.10118
   D18        1.07595  -0.00039   0.00019  -0.01660  -0.01651   1.05944
   D19        3.11963  -0.00035   0.00285  -0.03826  -0.03547   3.08416
   D20       -0.98321  -0.00014   0.00261  -0.03984  -0.03730  -1.02051
   D21        1.06047  -0.00011   0.00526  -0.06150  -0.05627   1.00420
   D22       -3.11004  -0.00189  -0.00016  -0.10550  -0.10586   3.06729
   D23       -0.02013   0.00165   0.01241  -0.00744   0.00517  -0.01495
         Item               Value     Threshold  Converged?
 Maximum Force            0.004252     0.000450     NO 
 RMS     Force            0.001135     0.000300     NO 
 Maximum Displacement     0.200520     0.001800     NO 
 RMS     Displacement     0.067821     0.001200     NO 
 Predicted change in Energy=-1.095175D-03
 GradGradGradGradGradGradGradGradGradGradGradGradGradGradGradGradGradGrad

                          Input orientation:                          
 ---------------------------------------------------------------------
 Center     Atomic      Atomic             Coordinates (Angstroms)
 Number     Number       Type             X           Y           Z
 ---------------------------------------------------------------------
      1          6           0        0.961274   -0.089444   -0.196085
      2          6           0        0.466153    0.925902   -1.230086
      3          7           0        0.907698    0.575611   -2.576735
      4          6           0        0.352060   -1.456957   -0.336341
      5          8           0       -0.574998   -1.865020    0.324083
      6          8           0        0.999047   -2.220013   -1.234215
      7          1           0        0.718121    0.282179    0.795807
      8          1           0        2.045819   -0.183641   -0.282886
      9          1           0       -0.625161    0.943290   -1.228425
     10          1           0        0.805509    1.908084   -0.882825
     11          1           0        0.574133    1.276557   -3.228653
     12          1           0        1.920774    0.602766   -2.629895
     13          1           0        0.603850   -3.103754   -1.229385
 ---------------------------------------------------------------------
                    Distance matrix (angstroms):
                    1          2          3          4          5
     1  C    0.000000
     2  C    1.531414   0.000000
     3  N    2.472380   1.459839   0.000000
     4  C    1.503631   2.547512   3.075619   0.000000
     5  O    2.404865   3.359863   4.070603   1.209178   0.000000
     6  O    2.370330   3.190733   3.102615   1.344256   2.243197
     7  H    1.086773   2.140586   3.390587   2.107215   2.550519
     8  H    1.092083   2.150260   2.670866   2.119672   3.172401
     9  H    2.156164   1.091454   2.074316   2.740796   3.209268
    10  H    2.118016   1.095643   2.157605   3.439151   4.195085
    11  H    3.348478   2.031966   1.013700   3.985835   4.879748
    12  H    2.706146   2.044457   1.014833   3.458860   4.587465
    13  H    3.206482   4.032008   3.930064   1.890203   2.310283
                    6          7          8          9         10
     6  O    0.000000
     7  H    3.234328   0.000000
     8  H    2.479429   1.772949   0.000000
     9  H    3.555921   2.517735   3.049287   0.000000
    10  H    4.147543   2.338591   2.504717   1.759854   0.000000
    11  H    4.047757   4.147987   3.602163   2.355905   2.440342
    12  H    3.281095   3.644802   2.478411   2.926066   2.449474
    13  H    0.968092   3.947025   3.391488   4.229543   5.027851
                   11         12         13
    11  H    0.000000
    12  H    1.620477   0.000000
    13  H    4.815088   4.175404   0.000000
 Stoichiometry    C3H7NO2
 Framework group  C1[X(C3H7NO2)]
 Deg. of freedom    33
 Full point group                 C1      NOp   1
 Largest Abelian subgroup         C1      NOp   1
 Largest concise Abelian subgroup C1      NOp   1
                         Standard orientation:                         
 ---------------------------------------------------------------------
 Center     Atomic      Atomic             Coordinates (Angstroms)
 Number     Number       Type             X           Y           Z
 ---------------------------------------------------------------------
      1          6           0       -0.167357   -0.703682    0.695049
      2          6           0       -1.442526   -0.664416   -0.152082
      3          7           0       -1.929016    0.701416   -0.322260
      4          6           0        1.026836   -0.068042    0.038719
      5          8           0        1.894568   -0.677560   -0.542350
      6          8           0        1.072423    1.261965    0.228528
      7          1           0        0.079375   -1.742306    0.898668
      8          1           0       -0.354667   -0.192117    1.641549
      9          1           0       -1.233261   -1.072195   -1.142636
     10          1           0       -2.154091   -1.342049    0.332605
     11          1           0       -2.779356    0.684970   -0.873839
     12          1           0       -2.185815    1.094975    0.577213
     13          1           0        1.893287    1.600405   -0.157273
 ---------------------------------------------------------------------
 Rotational constants (GHZ):           6.2853654           2.4400870           2.0271983
 Standard basis: 6-311++G(2df,2p) (5D, 7F)
 There are   304 symmetry adapted cartesian basis functions of A   symmetry.
 There are   274 symmetry adapted basis functions of A   symmetry.
   274 basis functions,   396 primitive gaussians,   304 cartesian basis functions
    24 alpha electrons       24 beta electrons
       nuclear repulsion energy       244.8067021315 Hartrees.
 NAtoms=   13 NActive=   13 NUniq=   13 SFac= 1.00D+00 NAtFMM=   60 NAOKFM=F Big=F
 Integral buffers will be    131072 words long.
 Raffenetti 2 integral format.
 Two-electron integral symmetry is turned on.
 ------------------------------------------------------------------------------
 Polarizable Continuum Model (PCM)
 =================================
 Model                : PCM.
 Atomic radii         : UFF (Universal Force Field).
 Polarization charges : Total charges.
 Charge compensation  : None.
 Solution method      : On-the-fly selection.
 Cavity type          : Scaled VdW (van der Waals Surface) (Alpha=1.100).
 Cavity algorithm     : GePol (No added spheres)
                        Default sphere list used, NSphG=   13.
                        Lebedev-Laikov grids with approx.  5.0 points / Ang**2.
                        Smoothing algorithm: York/Karplus (Gamma=1.0000).
                        Polarization charges: spherical gaussians, with
                                              point-specific exponents (IZeta= 3).
                        Self-potential: point-specific (ISelfS= 7).
                        Self-field    : sphere-specific E.n sum rule (ISelfD= 2).
 1st derivatives      : Analytical E(r).r(x)/FMM algorithm (CHGder, D1EAlg=3).
                        Cavity 1st derivative terms included.
 Solvent              : Water, Eps=  78.355300 Eps(inf)=   1.777849
 ------------------------------------------------------------------------------
 Spheres list:
 ISph  on   Nord     Re0    Alpha      Xe            Ye            Ze
    1   C      1    1.9255  1.100     -0.167357     -0.703682      0.695049
    2   C      2    1.9255  1.100     -1.442526     -0.664416     -0.152082
    3   N      3    1.8300  1.100     -1.929016      0.701416     -0.322260
    4   C      4    1.9255  1.100      1.026836     -0.068042      0.038719
    5   O      5    1.7500  1.100      1.894568     -0.677560     -0.542350
    6   O      6    1.7500  1.100      1.072423      1.261965      0.228528
    7   H      7    1.4430  1.100      0.079375     -1.742306      0.898668
    8   H      8    1.4430  1.100     -0.354667     -0.192117      1.641549
    9   H      9    1.4430  1.100     -1.233261     -1.072195     -1.142636
   10   H     10    1.4430  1.100     -2.154091     -1.342049      0.332605
   11   H     11    1.4430  1.100     -2.779356      0.684970     -0.873839
   12   H     12    1.4430  1.100     -2.185815      1.094975      0.577213
   13   H     13    1.4430  1.100      1.893287      1.600405     -0.157273
 ------------------------------------------------------------------------------
 One-electron integrals computed using PRISM.
 NBasis=   274 RedAO= T EigKep=  3.26D-05  NBF=   274
 NBsUse=   274 1.00D-06 EigRej= -1.00D+00 NBFU=   274
 Initial guess from the checkpoint file:  "beta-alanine_298K.chk"
 B after Tr=    -0.000000    0.000000   -0.000000
         Rot=    0.999730    0.020005   -0.000526    0.011814 Ang=   2.66 deg.
 ExpMin= 3.60D-02 ExpMax= 8.59D+03 ExpMxC= 1.30D+03 IAcc=3 IRadAn=         5 AccDes= 0.00D+00
 Harris functional with IExCor=  402 and IRadAn=       5 diagonalized for initial guess.
 HarFok:  IExCor=  402 AccDes= 0.00D+00 IRadAn=         5 IDoV= 1 UseB2=F ITyADJ=14
 ICtDFT=  3500011 ScaDFX=  1.000000  1.000000  1.000000  1.000000
 FoFCou: FMM=F IPFlag=           0 FMFlag=      100000 FMFlg1=           0
         NFxFlg=           0 DoJE=T BraDBF=F KetDBF=T FulRan=T
         wScrn=  0.000000 ICntrl=       500 IOpCl=  0 I1Cent=   200000004 NGrid=           0
         NMat0=    1 NMatS0=      1 NMatT0=    0 NMatD0=    1 NMtDS0=    0 NMtDT0=    0
 Petite list used in FoFCou.
 Requested convergence on RMS density matrix=1.00D-08 within 128 cycles.
 Requested convergence on MAX density matrix=1.00D-06.
 Requested convergence on             energy=1.00D-06.
 No special actions if energy rises.
 Inv3:  Mode=1 IEnd=     3830700.
[...]
 ! R6    R(2,9)                  1.0892         -DE/DX =    0.0                 !
 ! R7    R(2,10)                 1.0951         -DE/DX =    0.0                 !
 ! R8    R(3,11)                 1.0127         -DE/DX =    0.0                 !
 ! R9    R(3,12)                 1.0139         -DE/DX =    0.0                 !
 ! R10   R(4,5)                  1.209          -DE/DX =    0.0                 !
 ! R11   R(4,6)                  1.3477         -DE/DX =    0.0                 !
 ! R12   R(6,13)                 0.9698         -DE/DX =    0.0                 !
 ! A1    A(2,1,4)              112.9406         -DE/DX =    0.0                 !
 ! A2    A(2,1,7)              109.5792         -DE/DX =    0.0                 !
 ! A3    A(2,1,8)              111.0458         -DE/DX =    0.0                 !
 ! A4    A(4,1,7)              106.5596         -DE/DX =    0.0                 !
 ! A5    A(4,1,8)              109.5782         -DE/DX =    0.0                 !
 ! A6    A(7,1,8)              106.8628         -DE/DX =    0.0                 !
 ! A7    A(1,2,3)              110.5693         -DE/DX =    0.0                 !
 ! A8    A(1,2,9)              109.2897         -DE/DX =    0.0                 !
 ! A9    A(1,2,10)             108.2184         -DE/DX =    0.0                 !
 ! A10   A(3,2,9)              108.1537         -DE/DX =    0.0                 !
 ! A11   A(3,2,10)             113.2576         -DE/DX =    0.0                 !
 ! A12   A(9,2,10)             107.2468         -DE/DX =    0.0                 !
 ! A13   A(2,3,11)             110.3803         -DE/DX =    0.0                 !
 ! A14   A(2,3,12)             110.418          -DE/DX =    0.0                 !
 ! A15   A(11,3,12)            106.4621         -DE/DX =    0.0                 !
 ! A16   A(1,4,5)              125.3803         -DE/DX =    0.0                 !
 ! A17   A(1,4,6)              112.4417         -DE/DX =    0.0                 !
 ! A18   A(5,4,6)              122.1516         -DE/DX =    0.0                 !
 ! A19   A(4,6,13)             108.279          -DE/DX =    0.0                 !
 ! D1    D(4,1,2,3)            -66.8753         -DE/DX =    0.0                 !
 ! D2    D(4,1,2,9)             52.0662         -DE/DX =    0.0                 !
 ! D3    D(4,1,2,10)           168.5469         -DE/DX =    0.0                 !
 ! D4    D(7,1,2,3)            174.5031         -DE/DX =    0.0                 !
 ! D5    D(7,1,2,9)            -66.5554         -DE/DX =    0.0                 !
 ! D6    D(7,1,2,10)            49.9253         -DE/DX =    0.0                 !
 ! D7    D(8,1,2,3)             56.6798         -DE/DX =    0.0                 !
 ! D8    D(8,1,2,9)            175.6212         -DE/DX =    0.0                 !
 ! D9    D(8,1,2,10)           -67.8981         -DE/DX =    0.0                 !
 ! D10   D(2,1,4,5)            -40.6995         -DE/DX =    0.0                 !
 ! D11   D(2,1,4,6)            141.142          -DE/DX =    0.0                 !
 ! D12   D(7,1,4,5)             79.6642         -DE/DX =    0.0                 !
 ! D13   D(7,1,4,6)            -98.4942         -DE/DX =    0.0                 !
 ! D14   D(8,1,4,5)           -165.0613         -DE/DX =    0.0                 !
 ! D15   D(8,1,4,6)             16.7803         -DE/DX =    0.0                 !
 ! D16   D(1,2,3,11)           171.4718         -DE/DX =    0.0                 !
 ! D17   D(1,2,3,12)           -71.0852         -DE/DX =    0.0                 !
 ! D18   D(9,2,3,11)            51.8439         -DE/DX =    0.0                 !
 ! D19   D(9,2,3,12)           169.2869         -DE/DX =    0.0                 !
 ! D20   D(10,2,3,11)          -66.8768         -DE/DX =    0.0                 !
 ! D21   D(10,2,3,12)           50.5662         -DE/DX =    0.0                 !
 ! D22   D(1,4,6,13)           177.2791         -DE/DX =    0.0                 !
 ! D23   D(5,4,6,13)            -0.9475         -DE/DX =    0.0                 !
 --------------------------------------------------------------------------------
 GradGradGradGradGradGradGradGradGradGradGradGradGradGradGradGradGradGrad


 ----------------------------------------------------------------------

 Electric dipole moment (input orientation):
 (Debye = 10**-18 statcoulomb cm , SI units = C m)
                  (au)            (Debye)         (10**-30 SI)
   Tot        0.130800D+01      0.332459D+01      0.110897D+02
   x          0.102382D+01      0.260230D+01      0.868035D+01
   y          0.772748D+00      0.196413D+01      0.655163D+01
   z          0.255922D+00      0.650489D+00      0.216980D+01

 Dipole polarizability, Alpha (input orientation).
 (esu units = cm**3 , SI units = C**2 m**2 J**-1)
 Alpha(0;0):
               (au)            (10**-24 esu)      (10**-40 SI)
   iso        0.689341D+02      0.102150D+02      0.113657D+02
   aniso      0.110262D+02      0.163392D+01      0.181798D+01
   xx         0.700422D+02      0.103792D+02      0.115484D+02
   yx        -0.127215D+00     -0.188513D-01     -0.209749D-01
   yy         0.744026D+02      0.110253D+02      0.122673D+02
   zx         0.181477D+01      0.268921D+00      0.299214D+00
   zy         0.161231D+00      0.238919D-01      0.265833D-01
   zz         0.623577D+02      0.924046D+01      0.102814D+02

 ----------------------------------------------------------------------

 Dipole orientation:
     6          1.53502454         -0.63577532          1.26636878
     6          1.47415883          2.24378961          1.38198240
     7          4.01691534          3.28760026          1.01450214
     6          2.19611149         -1.63015510         -1.32221424
     8          1.43105793         -0.78114192         -3.30055428
     8          3.71596080         -3.67122220         -1.22068908
     1         -0.33409874         -1.38684493          1.72605309
     1          2.84534931         -1.40380582          2.65562818
     1          0.26382070          2.95921146         -0.12130572
     1          0.61402462          2.80108431          3.17981661
     1          3.93564223          5.19046014          0.82787660
     1          5.11076599          2.93871189          2.54831867
     1          4.00037882         -4.26175531         -2.93203761

 Electric dipole moment (dipole orientation):
 (Debye = 10**-18 statcoulomb cm , SI units = C m)
                  (au)            (Debye)         (10**-30 SI)
   Tot        0.130800D+01      0.332459D+01      0.110897D+02
   x          0.000000D+00      0.000000D+00      0.000000D+00
   y          0.000000D+00      0.000000D+00      0.000000D+00
   z          0.130800D+01      0.332459D+01      0.110897D+02

 Dipole polarizability, Alpha (dipole orientation).
 (esu units = cm**3 , SI units = C**2 m**2 J**-1)
 Alpha(0;0):
               (au)            (10**-24 esu)      (10**-40 SI)
   iso        0.689341D+02      0.102150D+02      0.113657D+02
   aniso      0.110262D+02      0.163392D+01      0.181798D+01
   xx         0.647467D+02      0.959447D+01      0.106753D+02
   yx        -0.483652D+01     -0.716698D+00     -0.797434D+00
   yy         0.703104D+02      0.104189D+02      0.115926D+02
   zx        -0.843088D+00     -0.124933D+00     -0.139006D+00
   zy         0.166042D+01      0.246049D+00      0.273767D+00
   zz         0.717454D+02      0.106316D+02      0.118292D+02

 ----------------------------------------------------------------------
 1\1\GINC-A356\Freq\RB3LYP\6-311++G(2df,2p)\C3H7N1O2\MADANI\09-Jul-2025
 \0\\# freq b3lyp/6-311++g(2df,2p) scrf=(iefpcm,solvent=water) temperat
 ure=298 Geom=AllChk Guess=Read\\beta-alanine | OPT @ 298 K\\0,1\C,1.05
 07201618,-0.1564864153,-0.3059407646\C,0.4935570641,0.9710961003,-1.16
 90017194\N,0.7837758152,0.7269147271,-2.5866130662\C,0.352587751,-1.47
 36574061,-0.536913629\O,-0.8380177088,-1.6174411959,-0.690283895\O,1.2
 045173443,-2.5177714758,-0.5178366242\H,0.9125855068,0.0883423246,0.75
 06716715\H,2.1214353904,-0.2781214775,-0.4647375966\H,-0.5878249529,1.
 0169057855,-1.0469796098\H,0.9022528798,1.918015218,-0.8008080733\H,0.
 2960546057,1.3982103702,-3.1671657946\H,1.7727309861,0.8518312461,-2.7
 718139442\H,0.6899051566,-3.3322778012,-0.6282169545\\Version=ES64L-G1
 6RevB.01\State=1-A\HF=-323.8824383\RMSD=2.585e-09\RMSF=5.110e-06\ZeroP
 oint=0.1080688\Thermal=0.1148758\Dipole=1.023825,0.7727481,0.2559222\D
 ipoleDeriv=0.0578793,-0.0482906,-0.0883649,-0.0910144,-0.2242436,0.011
 3508,-0.0999086,-0.0817356,0.0140834,0.2206394,-0.0435482,-0.0873014,0
 .0690602,0.3952752,-0.0548714,-0.0408477,0.0170846,0.770161,-0.3420781
 ,-0.0107729,0.0432346,-0.0484288,-0.6107706,-0.1009022,0.004275,-0.076
 0213,-0.8575084,2.1835751,-0.3185922,0.158313,-0.3291806,1.8667663,0.0
 307977,0.1977115,0.1113448,0.4083811,-1.6076815,0.0532796,-0.1058005,-
 0.2413819,-0.8524705,-0.0208877,-0.135704,-0.0154303,-0.495131,-0.9140
 664,0.4489341,-0.0237035,0.7425584,-1.3129118,0.0707082,-0.0063694,-0.
 0206828,-0.4324525,0.0897348,-0.0199608,0.0432264,-0.0245817,0.042971,
 -0.0184544,0.0263659,0.0073473,-0.081729,-0.1186289,0.0096603,0.010351
 2,0.0158554,0.0222983,0.0179999,0.0658831,0.0259774,0.092055,-0.137296
 5,0.0626682,0.035767,0.0124678,0.083583,-0.0059614,0.0045042,0.0234486
 ,0.0052247,0.0466835,-0.0931893,-0.0477032,-0.0716142,-0.2109243,-0.13
 87249,-0.0100269,-0.0874071,-0.1360144,0.2110233,0.0720718,0.0456352,0
 .1128691,0.1424171,0.1563263,0.0355107,0.0851294,0.1531535,0.0416791,-
 0.0417302,0.0364039,-0.0878269,0.2941711,0.058561,-0.0246276,0.0244153
 ,0.1578229,0.268537,-0.0705297,-0.0200577,-0.0587822,0.3638388,-0.0059
 42,-0.0167662,-0.0134702,0.4019535\Polar=70.0421682,-0.1272151,74.4025
 502,1.814766,0.1612305,62.3577315\Quadrupole=-4.6626516,5.5034647,-0.8
 408132,-0.0742355,-0.3772219,-1.9627489\PG=C01 [X(C3H7N1O2)]\NImag=0\\
 0.57962956,-0.02134845,0.46226247,-0.02899688,0.01937231,0.52105621,-0
 .10116910,0.02695634,-0.01825837,0.60474691,0.03047944,-0.13535257,0.0
 4027269,0.02426747,0.52728999,-0.02615774,0.04250321,-0.09795832,0.000
 04848,0.02540500,0.45188381,0.00380245,-0.00163794,-0.01636342,-0.1012
 4646,0.02196967,0.02795363,0.63853636,-0.00465509,0.00609596,0.0258050
 8,0.01010642,-0.07311179,-0.00008402,-0.10651583,0.29449955,0.00457181
 ,0.00145267,-0.03314740,0.01213212,-0.04266423,-0.19291962,0.00200789,
 -0.14935275,0.49424401,-0.10032245,-0.03110735,-0.00325571,0.01143511,
 0.00575704,0.00896586,-0.00234424,-0.00070829,-0.00153707,0.89443204,-
 0.04867216,-0.15409234,-0.01054295,-0.00220897,-0.03744135,0.00358767,
 -0.00184661,0.00362679,-0.00425039,0.08400896,0.57624160,-0.00445679,-
 0.00676381,-0.09319807,0.01417866,0.01572767,0.00797662,-0.00007308,-0
 .00063820,0.00062492,0.08754116,0.03781948,0.24268755,-0.03190000,-0.0
 1475070,-0.00955754,-0.00303215,0.00534095,-0.00246446,0.00122040,-0.0
 0056920,0.00129261,-0.65532036,-0.10396099,-0.07702352,0.78654782,-0.0
 3503510,0.00242927,-0.00457633,-0.00090474,0.00241835,-0.00193975,-0.0
 0032633,-0.00089112,0.00138240,-0.08080964,-0.12717727,-0.01407238,0.0
 6806070,0.10927312,-0.01316046,-0.00381725,0.01818946,-0.00208922,-0.0
 0077543,-0.00143522,0.00091340,0.00120113,-0.00052920,-0.07674037,-0.0
 1566579,-0.08712509,0.09727780,0.01346474,0.04533113,0.00848896,-0.007
 07465,0.00044860,-0.00006953,-0.00225358,-0.00061710,0.00028347,0.0003
 6501,-0.00012567,-0.14847633,0.04143871,-0.00672616,-0.09513148,0.0604
 3267,-0.00943125,0.41443820,0.02288165,-0.04198257,-0.00076678,-0.0048
 8748,-0.00259604,-0.00655357,0.00020048,-0.00010694,0.00145258,0.05733
 487,-0.21416663,-0.00468302,0.05997491,0.01263672,0.00518891,0.0858315
 6,0.59045573,0.00178786,-0.00788113,0.01284079,-0.00180027,-0.00009060
 ,-0.00197768,-0.00013057,0.00021674,0.00022172,-0.00511940,-0.00569483
 ,-0.06359463,-0.01008048,0.00597749,0.02769272,0.04728897,0.04777341,0
 .04708670,-0.04888193,0.00591536,0.03271703,0.00065982,-0.00313450,-0.
 01220272,-0.00020606,0.00175820,-0.00139355,0.00079968,-0.00274777,-0.
 01794319,-0.00140517,-0.00116865,0.00267986,0.00023695,-0.00027894,0.0
 0082449,0.05049391,0.00665158,-0.05917156,-0.06266735,-0.00489339,0.00
 672266,0.02353679,0.00316510,-0.00364757,0.00344243,0.00466518,-0.0068
 8168,-0.03202751,-0.00086215,-0.00049322,0.00355507,-0.00083660,-0.002
 98597,0.00176558,-0.00732979,0.06630365,0.03321520,-0.05685352,-0.2828
 6364,0.00326417,-0.00592494,-0.01651785,-0.00299251,0.00378501,-0.0024
 7739,-0.00029882,-0.00307072,-0.00614737,0.00064073,-0.00005884,0.0012
 4754,-0.00068517,0.00005213,-0.00011968,-0.03528896,0.06331217,0.31048
 824,-0.30166519,0.02419712,0.04022651,-0.01103696,0.00215763,0.0013860
 2,0.00151063,-0.00064934,0.00029063,-0.01621051,0.00530900,0.00291485,
 -0.00123570,-0.00426850,-0.00072897,0.00196635,0.00137092,-0.00002611,
 -0.00307174,0.00038935,0.00117148,0.32809703,0.03119637,-0.05336588,-0
 .00375409,0.02648882,-0.00341251,-0.00375870,-0.00111543,0.00113687,-0
 .00167037,-0.02838943,0.00647377,0.00772671,-0.00539327,-0.00676522,-0
 .00340089,0.00019352,-0.00069649,-0.00070185,0.00754213,-0.00101243,-0
 .00081640,-0.03073768,0.05944295,0.04176003,-0.00284894,-0.05288005,-0
 .01974144,0.00242389,0.00184420,-0.00040144,-0.00095975,0.00206365,-0.
 00757955,-0.00097918,-0.00176204,-0.00087589,-0.00144083,0.00134798,-0
 .00016831,0.00090706,0.00014797,0.03065815,-0.00260964,-0.00422130,-0.
 04296322,0.00311073,0.05499800,-0.01211659,0.00285818,-0.00046905,-0.3
 0687770,0.00949734,0.02636432,-0.00544575,0.00074565,0.00380827,-0.002
 43275,-0.00174703,-0.00038060,0.00195315,-0.00119550,0.00059505,0.0003
 9031,0.00040129,0.00009059,0.00036584,0.00010701,-0.00032692,0.0006737
 5,0.00118758,-0.00172455,0.33279232,0.02668536,-0.00275611,-0.00138391
 ,0.00411478,-0.04983866,-0.00205202,0.00675971,0.00001925,-0.00076693,
 0.00207208,0.00029396,-0.00088283,-0.00082515,0.00056256,-0.00002382,-
 0.00055665,0.00059584,0.00007730,-0.00061019,0.00088335,-0.00038624,0.
 00158685,-0.00343916,0.00290535,-0.01106561,0.05108662,-0.02045435,0.0
 0105270,0.00181434,0.01881758,-0.00138425,-0.05091558,0.03879639,-0.00
 313722,-0.01104241,-0.00023271,-0.00068950,0.00051488,0.00055125,0.000
 03181,-0.00018500,0.00008532,-0.00000036,0.00006859,0.00023146,-0.0007
 5256,0.00051069,-0.00086428,0.00352125,-0.00172350,-0.02944139,0.00113
 093,0.06416642,0.00489978,0.01389555,0.00139004,-0.09203835,-0.0838714
 7,-0.02745871,0.00659472,0.00770835,0.00443165,-0.00233935,0.00101756,
 -0.00232265,0.00113972,-0.00076417,0.00063892,0.00033431,0.00072226,0.
 00036179,0.00042760,-0.00071687,0.00052001,0.00060990,-0.00053620,0.00
 065447,-0.01172902,-0.02819849,-0.00910591,0.09094945,-0.01141924,-0.0
 2418244,-0.00411041,-0.08191851,-0.23151417,-0.06058027,0.00086088,0.0
 0042383,-0.00854631,0.00394066,0.00075937,0.00388251,-0.00067599,-0.00
 051214,-0.00055409,-0.00036378,-0.00251250,-0.00053764,-0.00042652,0.0
 0084570,-0.00000346,0.00036256,0.00082632,-0.00071527,-0.00072857,0.00
 163749,0.00095944,0.08923200,0.25278451,0.00799249,0.01705825,0.004399
 49,-0.02887688,-0.06269794,-0.06807096,-0.00858456,-0.03145780,-0.0277
 9955,-0.00275564,0.00147911,-0.00216653,0.00048098,0.00035164,0.000363
 71,0.00027430,0.00202171,0.00040039,0.00056490,-0.00038474,0.00093592,
 -0.00017801,-0.00065570,0.00039871,0.00006463,0.00200787,0.00181293,0.
 03186157,0.07089473,0.08672898,-0.00001508,-0.00014774,0.00245367,0.00
 452738,-0.00746229,0.00528606,-0.13667046,0.12001276,-0.08798801,0.000
 33560,0.00092588,0.00007147,-0.00019791,-0.00017937,-0.00000487,-0.000
 00006,-0.00031816,-0.00007174,0.00044856,-0.00033114,0.00076399,0.0002
 8396,-0.00008594,0.00008309,0.00049065,-0.00030024,0.00002580,-0.00021
 631,0.00038266,0.00041401,0.15074498,-0.00033949,0.00070707,0.00087052
 ,-0.00512018,0.00068690,-0.01186051,0.15312514,-0.20072265,0.17177172,
 0.00028827,0.00078502,-0.00024179,-0.00006323,-0.00007512,-0.00004086,
 -0.00003185,-0.00011202,-0.00002437,0.00019384,-0.00003058,0.00034981,
 -0.00017228,0.00007538,-0.00021753,-0.00019908,0.00044677,0.00029751,-
 0.00001183,0.00074995,-0.00026913,-0.14078136,0.19723980,0.00246793,-0
 .00224057,-0.00618795,-0.01794822,0.02616364,-0.02180761,-0.09043736,0
 .13641343,-0.16343858,-0.00054433,-0.00121024,-0.00049380,0.00041602,0
 .00023680,0.00013906,-0.00003840,0.00034510,0.00012101,-0.00051764,0.0
 0165409,-0.00091534,0.00002139,-0.00028223,0.00024985,0.00042263,0.000
 34123,0.00167400,-0.00076595,-0.00023691,0.00100178,0.10289068,-0.1564
 1789,0.18524240,0.00118984,-0.00046358,0.00022276,-0.00652830,-0.00332
 240,-0.00123747,-0.40598476,-0.02757073,0.06249320,-0.00020448,0.00001
 427,0.00008840,0.00006204,0.00000493,0.00001395,0.00001888,0.00001746,
 -0.00001682,0.00007175,0.00004571,0.00004589,-0.00023767,-0.00044570,0
 .00032545,0.00194510,0.00043162,0.00152220,0.00139939,0.00056170,-0.00
 109059,-0.01973373,-0.00687942,0.00405297,0.42800585,-0.00129955,0.000
 45048,0.00040097,0.00848129,-0.00287273,-0.00707258,-0.07462077,-0.027
 65549,0.02770368,-0.00071756,-0.00010938,-0.00033024,0.00017968,-0.000
 14891,0.00044321,0.00014007,-0.00006810,0.00000165,0.00033437,-0.00004
 601,-0.00010159,0.00029057,-0.00004404,0.00029690,0.00008365,0.0006046
 8,-0.00103520,0.00122921,0.00093557,0.00136258,0.02829954,0.00025742,-
 0.00475720,0.03759606,0.02868031,0.00103250,-0.00038904,0.00115228,0.0
 4081810,0.00403260,-0.00959512,0.04935658,0.01816839,-0.06571269,0.000
 28054,0.00030115,0.00001879,-0.00033855,-0.00004585,0.00001604,-0.0000
 2303,-0.00007380,-0.00000045,-0.00046729,-0.00025056,0.00016175,-0.000
 93846,0.00059207,-0.00032111,0.00096205,-0.00097082,-0.00669528,-0.000
 35088,-0.00023426,0.00188316,-0.02390963,-0.00422434,0.00440045,-0.066
 42075,-0.01691261,0.07467884,-0.00194025,0.00270786,-0.00055763,0.0006
 2932,0.00057472,0.00013382,-0.00005030,-0.00002791,0.00001612,0.020648
 03,0.02846914,0.00413143,-0.00270036,-0.00384631,0.00003616,-0.1824800
 2,-0.22325083,-0.03310831,0.00006078,-0.00005399,-0.00002910,0.0003161
 3,0.00009522,-0.00002680,-0.00000933,-0.00009408,0.00006864,-0.0000318
 4,0.00019216,-0.00016720,0.00000241,-0.00000854,-0.00001973,-0.0000039
 2,0.00000343,-0.00000119,0.16555935,0.00487468,-0.00104179,0.00108025,
 -0.00048184,-0.00097807,-0.00113124,-0.00001807,0.00033330,0.00004549,
 -0.01633479,-0.04831184,-0.00551660,-0.00645557,0.00874300,0.00042508,
 -0.17728444,-0.33846103,-0.04088175,-0.00004754,-0.00048632,-0.0002834
 2,0.00016378,0.00078044,0.00012721,0.00005510,-0.00009659,0.00000545,0
 .00029409,-0.00024150,0.00028941,-0.00001459,-0.00000795,-0.00000923,0
 .00001007,0.00001620,0.00000707,0.19523912,0.37975216,0.00039840,-0.00
 064488,0.00678286,-0.00054471,-0.00048811,-0.00050667,-0.00004495,0.00
 003995,-0.00008744,0.00127604,-0.00108381,0.00266478,-0.00031896,0.000
 68909,-0.00505313,-0.03028210,-0.04566337,-0.02288744,0.00013744,0.001
 42622,-0.00008156,-0.00031183,0.00008948,-0.00014236,0.00003497,0.0000
 0390,-0.00000009,0.00014563,-0.00021806,0.00011196,-0.00001452,0.00000
 687,0.00001474,0.00000081,0.00000043,0.00001333,0.02952378,0.04584229,
 0.01917103\\0.00000380,0.00000187,-0.00000954,-0.00000185,-0.00000482,
 -0.00000820,-0.00000156,0.00000414,0.00001123,0.00000080,0.00001212,-0
 .00000330,0.00001115,-0.00000947,0.00000186,-0.00000376,-0.00000183,-0
 .00000323,-0.00000283,0.00000451,0.00000196,0.00000055,0.00000473,0.00
 000041,-0.00000302,-0.00000292,0.00000282,-0.00000264,0.00000197,-0.00
 000009,-0.00000321,-0.00000063,0.00000366,-0.00000383,-0.00000013,0.00
 000063,0.00000638,-0.00000953,0.00000178\\\@


 It is also a good rule not to put too much confidence in
 experimental results until they have been confirmed by
 Theory.
                             -- Sir Arthur Eddington
 Job cpu time:       0 days  0 hours 17 minutes 55.1 seconds.
 Elapsed time:       0 days  0 hours 18 minutes  6.9 seconds.
 File lengths (MBytes):  RWF=    139 Int=      0 D2E=      0 Chk=     12 Scr=      1
 Normal termination of Gaussian 16 at Wed Jul  9 18:17:11 2025.
