 Entering Gaussian System, Link 0=g16
 Input=alanine_348K.com
 Output=alanine_348K.log
 Initial command:
 /apps/external/apps/gaussian/g16-B.01/g16-haswell/g16/l1.exe "/depot/pearce21/data/madani/Aug13/Gau-1724079.inp" -scrdir="/depot/pearce21/data/madani/Aug13/"
 Entering Link 1 = /apps/external/apps/gaussian/g16-B.01/g16-haswell/g16/l1.exe PID=   1724080.
  
 Copyright (c) 1988-2017, Gaussian, Inc.  All Rights Reserved.
  
 This is part of the Gaussian(R) 16 program.  It is based on
 the Gaussian(R) 09 system (copyright 2009, Gaussian, Inc.),
 the Gaussian(R) 03 system (copyright 2003, Gaussian, Inc.),
 the Gaussian(R) 98 system (copyright 1998, Gaussian, Inc.),
 the Gaussian(R) 94 system (copyright 1995, Gaussian, Inc.),
 the Gaussian 92(TM) system (copyright 1992, Gaussian, Inc.),
 the Gaussian 90(TM) system (copyright 1990, Gaussian, Inc.),
 the Gaussian 88(TM) system (copyright 1988, Gaussian, Inc.),
 the Gaussian 86(TM) system (copyright 1986, Carnegie Mellon
 University), and the Gaussian 82(TM) system (copyright 1983,
 Carnegie Mellon University). Gaussian is a federally registered
 trademark of Gaussian, Inc.
  
 This software contains proprietary and confidential information,
 including trade secrets, belonging to Gaussian, Inc.
  
 This software is provided under written license and may be
 used, copied, transmitted, or stored only in accord with that
 written license.
  
 The following legend is applicable only to US Government
 contracts under FAR:
  
                    RESTRICTED RIGHTS LEGEND
  
 Use, reproduction and disclosure by the US Government is
 subject to restrictions as set forth in subparagraphs (a)
 and (c) of the Commercial Computer Software - Restricted
 Rights clause in FAR 52.227-19.
  
 Gaussian, Inc.
 340 Quinnipiac St., Bldg. 40, Wallingford CT 06492
  
  
 ---------------------------------------------------------------
 Warning -- This program may not be used in any manner that
 competes with the business of Gaussian, Inc. or will provide
 assistance to any competitor of Gaussian, Inc.  The licensee
 of this program is prohibited from giving any competitor of
 Gaussian, Inc. access to this program.  By using this program,
 the user acknowledges that Gaussian, Inc. is engaged in the
 business of creating and licensing software in the field of
 computational chemistry and represents and warrants to the
 licensee that it is not a competitor of Gaussian, Inc. and that
 it will not use this program in any manner prohibited above.
 ---------------------------------------------------------------
  

 Cite this work as:
 Gaussian 16, Revision B.01,
 M. J. Frisch, G. W. Trucks, H. B. Schlegel, G. E. Scuseria, 
 M. A. Robb, J. R. Cheeseman, G. Scalmani, V. Barone, 
 G. A. Petersson, H. Nakatsuji, X. Li, M. Caricato, A. V. Marenich, 
 J. Bloino, B. G. Janesko, R. Gomperts, B. Mennucci, H. P. Hratchian, 
 J. V. Ortiz, A. F. Izmaylov, J. L. Sonnenberg, D. Williams-Young, 
 F. Ding, F. Lipparini, F. Egidi, J. Goings, B. Peng, A. Petrone, 
 T. Henderson, D. Ranasinghe, V. G. Zakrzewski, J. Gao, N. Rega, 
 G. Zheng, W. Liang, M. Hada, M. Ehara, K. Toyota, R. Fukuda, 
 J. Hasegawa, M. Ishida, T. Nakajima, Y. Honda, O. Kitao, H. Nakai, 
 T. Vreven, K. Throssell, J. A. Montgomery, Jr., J. E. Peralta, 
 F. Ogliaro, M. J. Bearpark, J. J. Heyd, E. N. Brothers, K. N. Kudin, 
 V. N. Staroverov, T. A. Keith, R. Kobayashi, J. Normand, 
 K. Raghavachari, A. P. Rendell, J. C. Burant, S. S. Iyengar, 
 J. Tomasi, M. Cossi, J. M. Millam, M. Klene, C. Adamo, R. Cammi, 
 J. W. Ochterski, R. L. Martin, K. Morokuma, O. Farkas, 
 J. B. Foresman, and D. J. Fox, Gaussian, Inc., Wallingford CT, 2016.
 
 ******************************************
 Gaussian 16:  ES64L-G16RevB.01 20-Dec-2017
                18-Aug-2025 
 ******************************************
 %nprocshared=16
 Will use up to   16 processors via shared memory.
 %mem=32GB
 %Chk=Alanine_348K.chk
 --------------------------------------------------------
 # opt b3lyp/6-311++g(2df,2p) scrf=(iefpcm,solvent=water)
 --------------------------------------------------------
 1/18=20,19=15,26=3,38=1/1,3;
 2/9=110,12=2,17=6,18=5,40=1/2;
 3/5=4,6=6,7=1214,11=2,25=1,30=1,70=2201,71=1,72=1,74=-5/1,2,3;
 4//1;
 5/5=2,38=5,53=1/2;
 6/7=2,8=2,9=2,10=2,28=1/1;
 7//1,2,3,16;
 1/18=20,19=15,26=3/3(2);
 2/9=110/2;
 99//99;
 2/9=110/2;
 3/5=4,6=6,7=1214,11=2,25=1,30=1,70=2205,71=1,72=1,74=-5/1,2,3;
 4/5=5,16=3,69=1/1;
 5/5=2,38=5,53=1/2;
 7//1,2,3,16;
 1/18=20,19=15,26=3/3(-5);
 2/9=110/2;
 6/7=2,8=2,9=2,10=2,19=2,28=1/1;
 99/9=1/99;
 ----------------------
 Aalanine | OPT @ 348 K
 ----------------------
 Symbolic Z-matrix:
 Charge =  0 Multiplicity = 1
 C                     1.07081  -0.03353  -0.07694 
 C                     0.57358  -0.24698  -1.49928 
 C                     1.06005  -1.59346  -2.04893 
 O                     0.35514  -2.51174  -2.44344 
 O                     2.40419  -1.69204  -2.09912 
 N                    -0.90601  -0.19204  -1.49474 
 H                     0.72947  -0.83518   0.58829 
 H                     0.71412   0.92066   0.32601 
 H                     2.16521  -0.02204  -0.0405 
 H                     0.94248   0.54506  -2.15987 
 H                     2.58014  -2.58453  -2.46491 
 H                    -1.2365   -0.38734  -2.44181 
 H                    -1.25286  -0.97896  -0.94167 
 

 GradGradGradGradGradGradGradGradGradGradGradGradGradGradGradGradGradGrad
 Berny optimization.
 Initialization pass.
                           ----------------------------
                           !    Initial Parameters    !
                           ! (Angstroms and Degrees)  !
 --------------------------                            --------------------------
 ! Name  Definition              Value          Derivative Info.                !
 --------------------------------------------------------------------------------
 ! R1    R(1,2)                  1.5218         estimate D2E/DX2                !
 ! R2    R(1,7)                  1.0962         estimate D2E/DX2                !
 ! R3    R(1,8)                  1.0955         estimate D2E/DX2                !
 ! R4    R(1,9)                  1.0951         estimate D2E/DX2                !
 ! R5    R(2,3)                  1.5336         estimate D2E/DX2                !
 ! R6    R(2,6)                  1.4806         estimate D2E/DX2                !
 ! R7    R(2,10)                 1.0954         estimate D2E/DX2                !
 ! R8    R(3,4)                  1.223          estimate D2E/DX2                !
 ! R9    R(3,5)                  1.3487         estimate D2E/DX2                !
 ! R10   R(5,11)                 0.9805         estimate D2E/DX2                !
 ! R11   R(6,12)                 1.0219         estimate D2E/DX2                !
 ! R12   R(6,13)                 1.0225         estimate D2E/DX2                !
 ! A1    A(2,1,7)              111.2767         estimate D2E/DX2                !
 ! A2    A(2,1,8)              111.0742         estimate D2E/DX2                !
 ! A3    A(2,1,9)              111.0458         estimate D2E/DX2                !
 ! A4    A(7,1,8)              108.2021         estimate D2E/DX2                !
 ! A5    A(7,1,9)              107.3778         estimate D2E/DX2                !
 ! A6    A(8,1,9)              107.6995         estimate D2E/DX2                !
 ! A7    A(1,2,3)              110.7627         estimate D2E/DX2                !
 ! A8    A(1,2,6)              108.5688         estimate D2E/DX2                !
 ! A9    A(1,2,10)             110.6224         estimate D2E/DX2                !
 ! A10   A(3,2,6)              110.5287         estimate D2E/DX2                !
 ! A11   A(3,2,10)             108.1735         estimate D2E/DX2                !
 ! A12   A(6,2,10)             108.154          estimate D2E/DX2                !
 ! A13   A(2,3,4)              126.3005         estimate D2E/DX2                !
 ! A14   A(2,3,5)              113.1827         estimate D2E/DX2                !
 ! A15   A(4,3,5)              120.5002         estimate D2E/DX2                !
 ! A16   A(3,5,11)             105.0268         estimate D2E/DX2                !
 ! A17   A(2,6,12)             108.2549         estimate D2E/DX2                !
 ! A18   A(2,6,13)             108.1855         estimate D2E/DX2                !
 ! A19   A(12,6,13)            104.1528         estimate D2E/DX2                !
 ! D1    D(7,1,2,3)            -58.5634         estimate D2E/DX2                !
 ! D2    D(7,1,2,6)             62.9694         estimate D2E/DX2                !
 ! D3    D(7,1,2,10)          -178.5016         estimate D2E/DX2                !
 ! D4    D(8,1,2,3)           -179.1812         estimate D2E/DX2                !
 ! D5    D(8,1,2,6)            -57.6484         estimate D2E/DX2                !
 ! D6    D(8,1,2,10)            60.8806         estimate D2E/DX2                !
 ! D7    D(9,1,2,3)             60.992          estimate D2E/DX2                !
 ! D8    D(9,1,2,6)           -177.4752         estimate D2E/DX2                !
 ! D9    D(9,1,2,10)           -58.9462         estimate D2E/DX2                !
 ! D10   D(1,2,3,4)            120.7459         estimate D2E/DX2                !
 ! D11   D(1,2,3,5)            -60.7377         estimate D2E/DX2                !
 ! D12   D(6,2,3,4)              0.3736         estimate D2E/DX2                !
 ! D13   D(6,2,3,5)            178.89           estimate D2E/DX2                !
 ! D14   D(10,2,3,4)          -117.8614         estimate D2E/DX2                !
 ! D15   D(10,2,3,5)            60.655          estimate D2E/DX2                !
 ! D16   D(1,2,6,12)          -176.9033         estimate D2E/DX2                !
 ! D17   D(1,2,6,13)           -64.6094         estimate D2E/DX2                !
 ! D18   D(3,2,6,12)           -55.2273         estimate D2E/DX2                !
 ! D19   D(3,2,6,13)            57.0667         estimate D2E/DX2                !
 ! D20   D(10,2,6,12)           63.0197         estimate D2E/DX2                !
 ! D21   D(10,2,6,13)          175.3136         estimate D2E/DX2                !
 ! D22   D(2,3,5,11)          -179.8554         estimate D2E/DX2                !
 ! D23   D(4,3,5,11)            -1.2431         estimate D2E/DX2                !
 --------------------------------------------------------------------------------
 Trust Radius=3.00D-01 FncErr=1.00D-07 GrdErr=1.00D-06 EigMax=2.50D+02 EigMin=1.00D-04
 Number of steps in this run=     64 maximum allowed number of steps=    100.
 GradGradGradGradGradGradGradGradGradGradGradGradGradGradGradGradGradGrad

                          Input orientation:                          
 ---------------------------------------------------------------------
 Center     Atomic      Atomic             Coordinates (Angstroms)
 Number     Number       Type             X           Y           Z
 ---------------------------------------------------------------------
      1          6           0        1.070810   -0.033530   -0.076940
      2          6           0        0.573580   -0.246980   -1.499280
      3          6           0        1.060050   -1.593460   -2.048930
      4          8           0        0.355140   -2.511740   -2.443440
      5          8           0        2.404190   -1.692040   -2.099120
      6          7           0       -0.906010   -0.192040   -1.494740
      7          1           0        0.729470   -0.835180    0.588290
      8          1           0        0.714120    0.920660    0.326010
      9          1           0        2.165210   -0.022040   -0.040500
     10          1           0        0.942480    0.545060   -2.159870
     11          1           0        2.580140   -2.584530   -2.464910
     12          1           0       -1.236500   -0.387340   -2.441810
     13          1           0       -1.252860   -0.978960   -0.941670
 ---------------------------------------------------------------------
                    Distance matrix (angstroms):
                    1          2          3          4          5
     1  C    0.000000
     2  C    1.521792   0.000000
     3  C    2.514407   1.533550   0.000000
     4  O    3.500576   2.463390   1.223019   0.000000
     5  O    2.935604   2.408140   1.348684   2.233623   0.000000
     6  N    2.437847   1.480617   2.477195   2.805626   3.684114
     7  H    1.096215   2.174449   2.763910   3.484589   3.280407
     8  H    1.095479   2.171363   3.475746   4.424940   3.945097
     9  H    1.095067   2.170696   2.779304   3.905007   2.661565
    10  H    2.165602   1.095351   2.144621   3.125605   2.672995
    11  H    3.806321   3.228446   1.861702   2.226294   0.980459
    12  H    3.322871   2.045594   2.623590   2.654505   3.882564
    13  H    2.653495   2.045142   2.636890   2.681491   3.901562
                    6          7          8          9         10
     6  N    0.000000
     7  H    2.725333   0.000000
     8  H    2.679189   1.775387   0.000000
     9  H    3.402368   1.765764   1.768806   0.000000
    10  H    2.098244   3.082664   2.524445   2.511653   0.000000
    11  H    4.338027   3.975831   4.853619   3.551941   3.545323
    12  H    1.021914   3.639657   3.629960   4.179876   2.386800
    13  H    1.022465   2.508203   3.014064   3.662104   2.937034
                   11         12         13
    11  H    0.000000
    12  H    4.403966   0.000000
    13  H    4.426060   1.612669   0.000000
 Stoichiometry    C3H7NO2
 Framework group  C1[X(C3H7NO2)]
 Deg. of freedom    33
 Full point group                 C1      NOp   1
 Largest Abelian subgroup         C1      NOp   1
 Largest concise Abelian subgroup C1      NOp   1
                         Standard orientation:                         
 ---------------------------------------------------------------------
 Center     Atomic      Atomic             Coordinates (Angstroms)
 Number     Number       Type             X           Y           Z
 ---------------------------------------------------------------------
      1          6           0       -1.274241    1.254819    0.380120
      2          6           0       -0.684096    0.105408   -0.423891
      3          6           0        0.778530   -0.137467   -0.032085
      4          8           0        1.245248   -1.175180    0.416358
      5          8           0        1.572694    0.929036   -0.257531
      6          7           0       -1.495978   -1.108009   -0.177533
      7          1           0       -1.221270    1.055559    1.456770
      8          1           0       -2.323588    1.423358    0.114526
      9          1           0       -0.729648    2.186195    0.192692
     10          1           0       -0.718288    0.327041   -1.496040
     11          1           0        2.466516    0.645436    0.028741
     12          1           0       -1.065667   -1.888145   -0.678059
     13          1           0       -1.400895   -1.360785    0.808620
 ---------------------------------------------------------------------
 Rotational constants (GHZ):           5.0560122           3.1830570           2.1843284
 Standard basis: 6-311++G(2df,2p) (5D, 7F)
 There are   304 symmetry adapted cartesian basis functions of A   symmetry.
 There are   274 symmetry adapted basis functions of A   symmetry.
   274 basis functions,   396 primitive gaussians,   304 cartesian basis functions
    24 alpha electrons       24 beta electrons
       nuclear repulsion energy       248.4404737989 Hartrees.
 NAtoms=   13 NActive=   13 NUniq=   13 SFac= 1.00D+00 NAtFMM=   60 NAOKFM=F Big=F
 Integral buffers will be    131072 words long.
 Raffenetti 2 integral format.
 Two-electron integral symmetry is turned on.
 ------------------------------------------------------------------------------
 Polarizable Continuum Model (PCM)
 =================================
 Model                : PCM.
 Atomic radii         : UFF (Universal Force Field).
 Polarization charges : Total charges.
 Charge compensation  : None.
 Solution method      : On-the-fly selection.
 Cavity type          : Scaled VdW (van der Waals Surface) (Alpha=1.100).
 Cavity algorithm     : GePol (No added spheres)
                        Default sphere list used, NSphG=   13.
                        Lebedev-Laikov grids with approx.  5.0 points / Ang**2.
                        Smoothing algorithm: York/Karplus (Gamma=1.0000).
                        Polarization charges: spherical gaussians, with
                                              point-specific exponents (IZeta= 3).
                        Self-potential: point-specific (ISelfS= 7).
                        Self-field    : sphere-specific E.n sum rule (ISelfD= 2).
 1st derivatives      : Analytical E(r).r(x)/FMM algorithm (CHGder, D1EAlg=3).
                        Cavity 1st derivative terms included.
 Solvent              : Water, Eps=  78.355300 Eps(inf)=   1.777849
 ------------------------------------------------------------------------------
 Spheres list:
 ISph  on   Nord     Re0    Alpha      Xe            Ye            Ze
    1   C      1    1.9255  1.100     -1.274241      1.254819      0.380120
    2   C      2    1.9255  1.100     -0.684096      0.105408     -0.423891
    3   C      3    1.9255  1.100      0.778530     -0.137467     -0.032085
    4   O      4    1.7500  1.100      1.245248     -1.175180      0.416358
    5   O      5    1.7500  1.100      1.572694      0.929036     -0.257531
    6   N      6    1.8300  1.100     -1.495978     -1.108009     -0.177533
    7   H      7    1.4430  1.100     -1.221270      1.055559      1.456770
    8   H      8    1.4430  1.100     -2.323588      1.423358      0.114526
    9   H      9    1.4430  1.100     -0.729648      2.186195      0.192692
   10   H     10    1.4430  1.100     -0.718288      0.327041     -1.496040
   11   H     11    1.4430  1.100      2.466516      0.645436      0.028741
   12   H     12    1.4430  1.100     -1.065667     -1.888145     -0.678059
   13   H     13    1.4430  1.100     -1.400895     -1.360785      0.808620
 ------------------------------------------------------------------------------
 One-electron integrals computed using PRISM.
 NBasis=   274 RedAO= T EigKep=  1.89D-05  NBF=   274
 NBsUse=   274 1.00D-06 EigRej= -1.00D+00 NBFU=   274
 ExpMin= 3.60D-02 ExpMax= 8.59D+03 ExpMxC= 1.30D+03 IAcc=3 IRadAn=         5 AccDes= 0.00D+00
 Harris functional with IExCor=  402 and IRadAn=       5 diagonalized for initial guess.
 HarFok:  IExCor=  402 AccDes= 0.00D+00 IRadAn=         5 IDoV= 1 UseB2=F ITyADJ=14
 ICtDFT=  3500011 ScaDFX=  1.000000  1.000000  1.000000  1.000000
 FoFCou: FMM=F IPFlag=           0 FMFlag=      100000 FMFlg1=           0
         NFxFlg=           0 DoJE=T BraDBF=F KetDBF=T FulRan=T
         wScrn=  0.000000 ICntrl=       500 IOpCl=  0 I1Cent=   200000004 NGrid=           0
         NMat0=    1 NMatS0=      1 NMatT0=    0 NMatD0=    1 NMtDS0=    0 NMtDT0=    0
 Petite list used in FoFCou.
 Requested convergence on RMS density matrix=1.00D-08 within 128 cycles.
 Requested convergence on MAX density matrix=1.00D-06.
 Requested convergence on             energy=1.00D-06.
 No special actions if energy rises.
 Inv3:  Mode=1 IEnd=     3583947.
 Iteration    1 A*A^-1 deviation from unit magnitude is 3.55D-15 for    918.
 Iteration    1 A*A^-1 deviation from orthogonality  is 1.44D-15 for   1047    373.
 Iteration    1 A^-1*A deviation from unit magnitude is 3.77D-15 for    918.
 Iteration    1 A^-1*A deviation from orthogonality  is 1.44D-15 for   1007     67.
 Error on total polarization charges =  0.01191
 SCF Done:  E(RB3LYP) =  -323.880497762     A.U. after   12 cycles
            NFock= 12  Conv=0.49D-08     -V/T= 2.0043

 **********************************************************************

            Population analysis using the SCF Density.

 **********************************************************************

 Orbital symmetries:
       Occupied  (A) (A) (A) (A) (A) (A) (A) (A) (A) (A) (A) (A)
                 (A) (A) (A) (A) (A) (A) (A) (A) (A) (A) (A) (A)
       Virtual   (A) (A) (A) (A) (A) (A) (A) (A) (A) (A) (A) (A)
                 (A) (A) (A) (A) (A) (A) (A) (A) (A) (A) (A) (A)
                 (A) (A) (A) (A) (A) (A) (A) (A) (A) (A) (A) (A)
                 (A) (A) (A) (A) (A) (A) (A) (A) (A) (A) (A) (A)
                 (A) (A) (A) (A) (A) (A) (A) (A) (A) (A) (A) (A)
                 (A) (A) (A) (A) (A) (A) (A) (A) (A) (A) (A) (A)
                 (A) (A) (A) (A) (A) (A) (A) (A) (A) (A) (A) (A)
                 (A) (A) (A) (A) (A) (A) (A) (A) (A) (A) (A) (A)
                 (A) (A) (A) (A) (A) (A) (A) (A) (A) (A) (A) (A)
                 (A) (A) (A) (A) (A) (A) (A) (A) (A) (A) (A) (A)
                 (A) (A) (A) (A) (A) (A) (A) (A) (A) (A) (A) (A)
                 (A) (A) (A) (A) (A) (A) (A) (A) (A) (A) (A) (A)
                 (A) (A) (A) (A) (A) (A) (A) (A) (A) (A) (A) (A)
                 (A) (A) (A) (A) (A) (A) (A) (A) (A) (A) (A) (A)
                 (A) (A) (A) (A) (A) (A) (A) (A) (A) (A) (A) (A)
                 (A) (A) (A) (A) (A) (A) (A) (A) (A) (A) (A) (A)
                 (A) (A) (A) (A) (A) (A) (A) (A) (A) (A) (A) (A)
                 (A) (A) (A) (A) (A) (A) (A) (A) (A) (A) (A) (A)
                 (A) (A) (A) (A) (A) (A) (A) (A) (A) (A) (A) (A)
                 (A) (A) (A) (A) (A) (A) (A) (A) (A) (A) (A) (A)
                 (A) (A) (A) (A) (A) (A) (A) (A) (A) (A)
 The electronic state is 1-A.
 Alpha  occ. eigenvalues --  -19.18442 -19.13092 -14.30574 -10.31759 -10.22709
 Alpha  occ. eigenvalues --  -10.17098  -1.12318  -1.02880  -0.90066  -0.76132
 Alpha  occ. eigenvalues --   -0.67441  -0.59723  -0.52255  -0.50826  -0.49843
 Alpha  occ. eigenvalues --   -0.45831  -0.44278  -0.42801  -0.39209  -0.37858
 Alpha  occ. eigenvalues --   -0.37084  -0.34080  -0.29995  -0.27153
 Alpha virt. eigenvalues --   -0.02293  -0.00789   0.00839   0.01541   0.02029
 Alpha virt. eigenvalues --    0.04449   0.04819   0.05586   0.06656   0.07204
 Alpha virt. eigenvalues --    0.08840   0.09956   0.10345   0.11021   0.11387
 Alpha virt. eigenvalues --    0.11955   0.13133   0.13402   0.14524   0.14922
 Alpha virt. eigenvalues --    0.15614   0.16516   0.18129   0.18758   0.19785
 Alpha virt. eigenvalues --    0.19957   0.21455   0.22336   0.23108   0.24179
 Alpha virt. eigenvalues --    0.24720   0.25365   0.26361   0.27124   0.28444
 Alpha virt. eigenvalues --    0.28751   0.30170   0.31863   0.32626   0.34371
 Alpha virt. eigenvalues --    0.35051   0.36743   0.38399   0.43033   0.44484
 Alpha virt. eigenvalues --    0.47301   0.49273   0.49578   0.52758   0.53317
 Alpha virt. eigenvalues --    0.54614   0.55267   0.56396   0.57411   0.58924
 Alpha virt. eigenvalues --    0.60402   0.61804   0.62756   0.64400   0.66227
 Alpha virt. eigenvalues --    0.66345   0.68391   0.70300   0.74647   0.75527
 Alpha virt. eigenvalues --    0.78063   0.78505   0.79459   0.82811   0.84056
 Alpha virt. eigenvalues --    0.88173   0.89412   0.91271   0.95254   0.98605
 Alpha virt. eigenvalues --    0.99105   1.00450   1.02903   1.04008   1.06807
 Alpha virt. eigenvalues --    1.08032   1.10119   1.10483   1.12438   1.14184
 Alpha virt. eigenvalues --    1.15789   1.18242   1.19696   1.20344   1.22921
 Alpha virt. eigenvalues --    1.27170   1.28817   1.30757   1.30966   1.31701
 Alpha virt. eigenvalues --    1.33967   1.37087   1.39463   1.42262   1.43361
 Alpha virt. eigenvalues --    1.45248   1.46417   1.47072   1.50228   1.50515
 Alpha virt. eigenvalues --    1.56137   1.58210   1.58698   1.60959   1.63867
 Alpha virt. eigenvalues --    1.66839   1.69674   1.73072   1.75066   1.75874
 Alpha virt. eigenvalues --    1.79531   1.87435   1.89056   1.90956   2.02692
 Alpha virt. eigenvalues --    2.12302   2.15376   2.27712   2.31864   2.45314
 Alpha virt. eigenvalues --    2.49321   2.50891   2.55692   2.58016   2.61353
 Alpha virt. eigenvalues --    2.64985   2.72063   2.73067   2.76611   2.80931
 Alpha virt. eigenvalues --    2.81018   2.90451   2.91277   2.92222   2.97250
 Alpha virt. eigenvalues --    2.99027   3.03661   3.07598   3.08738   3.13334
 Alpha virt. eigenvalues --    3.17327   3.19023   3.21548   3.25080   3.27210
 Alpha virt. eigenvalues --    3.32725   3.33148   3.34772   3.39455   3.40008
 Alpha virt. eigenvalues --    3.43344   3.43741   3.46610   3.48418   3.51145
 Alpha virt. eigenvalues --    3.53271   3.56895   3.59730   3.60775   3.64464
 Alpha virt. eigenvalues --    3.65803   3.70999   3.71206   3.74160   3.79821
 Alpha virt. eigenvalues --    3.80280   3.82073   3.84405   3.91341   3.92645
 Alpha virt. eigenvalues --    3.96156   3.97285   4.02063   4.03719   4.05716
 Alpha virt. eigenvalues --    4.08672   4.10417   4.14965   4.18892   4.23445
 Alpha virt. eigenvalues --    4.24837   4.27437   4.30803   4.37704   4.40373
 Alpha virt. eigenvalues --    4.46290   4.49558   4.51105   4.54192   4.59928
 Alpha virt. eigenvalues --    4.63049   4.71003   4.72867   4.80697   4.83539
 Alpha virt. eigenvalues --    4.88476   4.91486   5.01036   5.04177   5.07266
 Alpha virt. eigenvalues --    5.09336   5.12454   5.13502   5.17113   5.21377
 Alpha virt. eigenvalues --    5.23200   5.29628   5.31156   5.38272   5.39401
 Alpha virt. eigenvalues --    5.42202   5.46114   5.48761   5.52211   5.57839
 Alpha virt. eigenvalues --    5.62294   5.68068   5.72442   5.75779   5.82536
 Alpha virt. eigenvalues --    5.89729   5.90849   6.18484   6.28497   6.46981
 Alpha virt. eigenvalues --    6.52738   6.79365   6.87803   6.90806   6.92036
 Alpha virt. eigenvalues --    6.97885   7.13937   7.17299   7.21005   7.26997
 Alpha virt. eigenvalues --    7.53714   7.60421   7.68263   7.73834  24.23727
 Alpha virt. eigenvalues --   24.39091  24.69945  35.72539  50.00496  50.14447
          Condensed to atoms (all electrons):
               1          2          3          4          5          6
     1  C    5.339593  -0.096649   0.089337  -0.013620  -0.042492  -0.053287
     2  C   -0.096649   5.673482  -0.063339  -0.031121  -0.008898   0.202621
     3  C    0.089337  -0.063339   5.235120   0.368753   0.256752  -0.051225
     4  O   -0.013620  -0.031121   0.368753   8.226167  -0.094780  -0.015961
     5  O   -0.042492  -0.008898   0.256752  -0.094780   7.927838  -0.006175
     6  N   -0.053287   0.202621  -0.051225  -0.015961  -0.006175   6.674600
     7  H    0.378385   0.029427  -0.034906  -0.001933  -0.001415  -0.020567
     8  H    0.399516  -0.041975   0.008085  -0.001485   0.000475   0.002997
     9  H    0.423893  -0.051163  -0.005888   0.001389   0.005209   0.016066
    10  H   -0.052065   0.494868  -0.071260  -0.000816  -0.004780  -0.052875
    11  H    0.010856  -0.060796   0.017573   0.020057   0.258977   0.002115
    12  H    0.002981  -0.013904  -0.009639   0.007152  -0.000118   0.345230
    13  H   -0.007339  -0.005090  -0.012744   0.005442  -0.000898   0.340405
               7          8          9         10         11         12
     1  C    0.378385   0.399516   0.423893  -0.052065   0.010856   0.002981
     2  C    0.029427  -0.041975  -0.051163   0.494868  -0.060796  -0.013904
     3  C   -0.034906   0.008085  -0.005888  -0.071260   0.017573  -0.009639
     4  O   -0.001933  -0.001485   0.001389  -0.000816   0.020057   0.007152
     5  O   -0.001415   0.000475   0.005209  -0.004780   0.258977  -0.000118
     6  N   -0.020567   0.002997   0.016066  -0.052875   0.002115   0.345230
     7  H    0.570448  -0.029412  -0.032798   0.006611  -0.000691   0.001298
     8  H   -0.029412   0.560904  -0.026483  -0.006378  -0.000304   0.000886
     9  H   -0.032798  -0.026483   0.558855  -0.002703  -0.000608  -0.001576
    10  H    0.006611  -0.006378  -0.002703   0.536878   0.000683  -0.005178
    11  H   -0.000691  -0.000304  -0.000608   0.000683   0.431459  -0.000223
    12  H    0.001298   0.000886  -0.001576  -0.005178  -0.000223   0.493157
    13  H    0.003197  -0.002438   0.000195   0.007597   0.000195  -0.030373
              13
     1  C   -0.007339
     2  C   -0.005090
     3  C   -0.012744
     4  O    0.005442
     5  O   -0.000898
     6  N    0.340405
     7  H    0.003197
     8  H   -0.002438
     9  H    0.000195
    10  H    0.007597
    11  H    0.000195
    12  H   -0.030373
    13  H    0.489786
 Mulliken charges:
               1
     1  C   -0.379108
     2  C   -0.027465
     3  C    0.273379
     4  O   -0.469244
     5  O   -0.289695
     6  N   -0.383944
     7  H    0.132357
     8  H    0.135612
     9  H    0.115612
    10  H    0.149418
    11  H    0.320707
    12  H    0.210307
    13  H    0.212065
 Sum of Mulliken charges =  -0.00000
 Mulliken charges with hydrogens summed into heavy atoms:
               1
     1  C    0.004473
     2  C    0.121953
     3  C    0.273379
     4  O   -0.469244
     5  O    0.031011
     6  N    0.038428
 Electronic spatial extent (au):  <R**2>=            586.4718
 Charge=             -0.0000 electrons
 Dipole moment (field-independent basis, Debye):
    X=              0.8820    Y=              1.7621    Z=             -0.2501  Tot=              1.9863
 Quadrupole moment (field-independent basis, Debye-Ang):
   XX=            -38.2904   YY=            -39.1125   ZZ=            -35.0637
   XY=              1.2755   XZ=             -1.7289   YZ=              1.6172
 Traceless Quadrupole moment (field-independent basis, Debye-Ang):
   XX=             -0.8015   YY=             -1.6237   ZZ=              2.4252
   XY=              1.2755   XZ=             -1.7289   YZ=              1.6172
 Octapole moment (field-independent basis, Debye-Ang**2):
  XXX=             41.0924  YYY=             -3.3768  ZZZ=             -0.6092  XYY=             -4.3127
  XXY=             13.8573  XXZ=              3.5622  XZZ=              0.1369  YZZ=             -1.8066
  YYZ=             -1.6699  XYZ=              4.8978
 Hexadecapole moment (field-independent basis, Debye-Ang**3):
 XXXX=           -383.9115 YYYY=           -258.0498 ZZZZ=            -73.3752 XXXY=              2.5403
 XXXZ=             -6.6006 YYYX=             12.0272 YYYZ=              2.9992 ZZZX=             -1.1343
 ZZZY=             -1.7673 XXYY=           -121.6908 XXZZ=            -82.0478 YYZZ=            -55.9065
 XXYZ=             -1.0284 YYXZ=             -2.4212 ZZXY=              3.0578
 N-N= 2.484404737989D+02 E-N=-1.255388466905D+03  KE= 3.224855925698D+02
 D1PCM: PCM CHGder 1st derivatives, ID1Alg=3 FixD1E=F DoIter=F DoCFld=F I1PDM=0.
 Calling FoFJK, ICntrl=      2127 FMM=F ISym2X=0 I1Cent= 0 IOpClX= 0 NMat=1 NMatS=1 NMatT=0.
 ***** Axes restored to original set *****
 -------------------------------------------------------------------
 Center     Atomic                   Forces (Hartrees/Bohr)
 Number     Number              X              Y              Z
 -------------------------------------------------------------------
      1        6           0.011389573    0.002715323    0.007790774
      2        6          -0.019833449   -0.007441928    0.002198588
      3        6          -0.001252313   -0.012274296   -0.011395746
      4        8           0.007663239    0.018154109    0.009666959
      5        8          -0.004033445   -0.008415041   -0.002576188
      6        7           0.005165649   -0.005040834   -0.007740788
      7        1          -0.000330919    0.002315966   -0.002767250
      8        1          -0.000210048   -0.004049250   -0.003826586
      9        1          -0.003806961   -0.000200448    0.000022236
     10        1           0.000849965   -0.003218881    0.001671359
     11        1           0.002971823    0.009031906    0.003314615
     12        1           0.000091420    0.002880548    0.005176272
     13        1           0.001335467    0.005542827   -0.001534244
 -------------------------------------------------------------------
 Cartesian Forces:  Max     0.019833449 RMS     0.006915091

 GradGradGradGradGradGradGradGradGradGradGradGradGradGradGradGradGradGrad
 Berny optimization.
 FormGI is forming the generalized inverse of G from B-inverse, IUseBI=4.
 Internal  Forces:  Max     0.021167224 RMS     0.004391310
 Search for a local minimum.
 Step number   1 out of a maximum of   64
 All quantities printed in internal units (Hartrees-Bohrs-Radians)
 Mixed Optimization -- RFO/linear search
 Second derivative matrix not updated -- first step.
 ITU=  0
     Eigenvalues ---    0.00322   0.00478   0.00625   0.00787   0.02371
     Eigenvalues ---    0.04709   0.04729   0.05134   0.05549   0.05598
     Eigenvalues ---    0.06310   0.16000   0.16000   0.16000   0.16000
     Eigenvalues ---    0.16000   0.16000   0.16990   0.18221   0.24995
     Eigenvalues ---    0.25000   0.29098   0.30195   0.34104   0.34187
     Eigenvalues ---    0.34202   0.34234   0.34499   0.43947   0.44034
     Eigenvalues ---    0.51296   0.55302   0.94058
 RFO step:  Lambda=-4.33039721D-03 EMin= 3.22141156D-03
 Linear search not attempted -- first point.
 Iteration  1 RMS(Cart)=  0.04962558 RMS(Int)=  0.00155636
 Iteration  2 RMS(Cart)=  0.00212590 RMS(Int)=  0.00055641
 Iteration  3 RMS(Cart)=  0.00000123 RMS(Int)=  0.00055641
 Iteration  4 RMS(Cart)=  0.00000000 RMS(Int)=  0.00055641
 Variable       Old X    -DE/DX   Delta X   Delta X   Delta X     New X
                                 (Linear)    (Quad)   (Total)
    R1        2.87577   0.00354   0.00000   0.01155   0.01155   2.88732
    R2        2.07155  -0.00328   0.00000  -0.00949  -0.00949   2.06206
    R3        2.07016  -0.00486   0.00000  -0.01404  -0.01404   2.05611
    R4        2.06938  -0.00381   0.00000  -0.01098  -0.01098   2.05840
    R5        2.89799  -0.00365   0.00000  -0.01237  -0.01237   2.88562
    R6        2.79796  -0.00647   0.00000  -0.01852  -0.01852   2.77944
    R7        2.06991  -0.00305   0.00000  -0.00881  -0.00881   2.06111
    R8        2.31117  -0.02117   0.00000  -0.02240  -0.02240   2.28877
    R9        2.54864  -0.00112   0.00000  -0.00201  -0.00201   2.54663
   R10        1.85280  -0.00893   0.00000  -0.01726  -0.01726   1.83554
   R11        1.93114  -0.00538   0.00000  -0.01209  -0.01209   1.91905
   R12        1.93218  -0.00554   0.00000  -0.01248  -0.01248   1.91970
    A1        1.94214  -0.00134   0.00000  -0.00940  -0.00957   1.93257
    A2        1.93861  -0.00377   0.00000  -0.02627  -0.02639   1.91222
    A3        1.93812   0.00142   0.00000   0.01322   0.01328   1.95140
    A4        1.88848   0.00170   0.00000   0.00182   0.00146   1.88995
    A5        1.87410   0.00071   0.00000   0.01057   0.01058   1.88467
    A6        1.87971   0.00152   0.00000   0.01166   0.01176   1.89147
    A7        1.93317  -0.00274   0.00000  -0.00094  -0.00321   1.92997
    A8        1.89488   0.00262   0.00000   0.03748   0.03651   1.93139
    A9        1.93073  -0.00051   0.00000  -0.02798  -0.02828   1.90245
   A10        1.92909   0.00429   0.00000   0.04904   0.04831   1.97740
   A11        1.88798  -0.00170   0.00000  -0.04196  -0.04209   1.84589
   A12        1.88764  -0.00192   0.00000  -0.01606  -0.01504   1.87261
   A13        2.20436  -0.00496   0.00000  -0.01897  -0.01983   2.18453
   A14        1.97541  -0.00282   0.00000  -0.01052  -0.01141   1.96400
   A15        2.10313   0.00779   0.00000   0.03123   0.03032   2.13344
   A16        1.83306   0.00863   0.00000   0.05253   0.05253   1.88560
   A17        1.88941   0.00348   0.00000   0.02911   0.02878   1.91818
   A18        1.88819   0.00119   0.00000   0.01518   0.01484   1.90303
   A19        1.81781  -0.00005   0.00000   0.01855   0.01782   1.83563
    D1       -1.02212  -0.00403   0.00000  -0.07448  -0.07425  -1.09637
    D2        1.09902   0.00127   0.00000   0.01011   0.01027   1.10929
    D3       -3.11544   0.00023   0.00000  -0.00299  -0.00307  -3.11851
    D4       -3.12730  -0.00272   0.00000  -0.05253  -0.05253   3.10336
    D5       -1.00615   0.00258   0.00000   0.03206   0.03199  -0.97417
    D6        1.06257   0.00154   0.00000   0.01896   0.01865   1.08122
    D7        1.06451  -0.00308   0.00000  -0.05857  -0.05841   1.00610
    D8       -3.09753   0.00222   0.00000   0.02602   0.02610  -3.07143
    D9       -1.02880   0.00118   0.00000   0.01292   0.01277  -1.01604
   D10        2.10741   0.00169   0.00000  -0.04289  -0.04272   2.06469
   D11       -1.06007   0.00269   0.00000   0.03566   0.03521  -1.02486
   D12        0.00652  -0.00262   0.00000  -0.12161  -0.12158  -0.11506
   D13        3.12222  -0.00162   0.00000  -0.04306  -0.04364   3.07858
   D14       -2.05707  -0.00172   0.00000  -0.10505  -0.10432  -2.16139
   D15        1.05863  -0.00072   0.00000  -0.02649  -0.02639   1.03224
   D16       -3.08755  -0.00145   0.00000  -0.04017  -0.04116  -3.12870
   D17       -1.12765   0.00079   0.00000   0.00310   0.00252  -1.12512
   D18       -0.96390  -0.00047   0.00000   0.01360   0.01418  -0.94972
   D19        0.99600   0.00177   0.00000   0.05688   0.05786   1.05386
   D20        1.09990  -0.00123   0.00000  -0.01879  -0.01898   1.08092
   D21        3.05980   0.00100   0.00000   0.02449   0.02470   3.08450
   D22       -3.13907  -0.00008   0.00000  -0.02598  -0.02689   3.11722
   D23       -0.02170   0.00066   0.00000   0.04671   0.04762   0.02593
         Item               Value     Threshold  Converged?
 Maximum Force            0.021167     0.000450     NO 
 RMS     Force            0.004391     0.000300     NO 
 Maximum Displacement     0.152879     0.001800     NO 
 RMS     Displacement     0.049870     0.001200     NO 
 Predicted change in Energy=-2.333607D-03
 GradGradGradGradGradGradGradGradGradGradGradGradGradGradGradGradGradGrad

                          Input orientation:                          
 ---------------------------------------------------------------------
 Center     Atomic      Atomic             Coordinates (Angstroms)
 Number     Number       Type             X           Y           Z
 ---------------------------------------------------------------------
      1          6           0        1.085824   -0.059101   -0.079748
      2          6           0        0.545388   -0.283577   -1.491141
      3          6           0        1.060083   -1.604225   -2.059224
      4          8           0        0.365389   -2.541231   -2.385321
      5          8           0        2.405837   -1.655887   -2.107764
      6          7           0       -0.921319   -0.175105   -1.508570
      7          1           0        0.730480   -0.836876    0.598115
      8          1           0        0.740930    0.902896    0.293698
      9          1           0        2.174837   -0.065572   -0.057674
     10          1           0        0.935825    0.494038   -2.148773
     11          1           0        2.661040   -2.526007   -2.455948
     12          1           0       -1.268895   -0.338137   -2.448721
     13          1           0       -1.315599   -0.923336   -0.945839
 ---------------------------------------------------------------------
                    Distance matrix (angstroms):
                    1          2          3          4          5
     1  C    0.000000
     2  C    1.527904   0.000000
     3  C    2.511254   1.527004   0.000000
     4  O    3.463475   2.434945   1.211164   0.000000
     5  O    2.899139   2.392640   1.347620   2.241495   0.000000
     6  N    2.466497   1.470815   2.504308   2.832465   3.690761
     7  H    1.091193   2.169191   2.785483   3.455286   3.286240
     8  H    1.088049   2.152117   3.453079   4.379518   3.884109
     9  H    1.089256   2.181160   2.759770   3.849796   2.604867
    10  H    2.146934   1.090690   2.103845   3.097452   2.604764
    11  H    3.770048   3.230376   1.889481   2.296788   0.971324
    12  H    3.351804   2.052208   2.679333   2.743816   3.918721
    13  H    2.695152   2.042037   2.710554   2.741425   3.966835
                    6          7          8          9         10
     6  N    0.000000
     7  H    2.757626   0.000000
     8  H    2.678306   1.766235   0.000000
     9  H    3.421005   1.763840   1.765639   0.000000
    10  H    2.075234   3.059230   2.484112   2.494195   0.000000
    11  H    4.388344   3.988424   4.796327   3.470137   3.491618
    12  H    1.015516   3.678240   3.619450   4.201272   2.375558
    13  H    1.015860   2.564705   3.016767   3.702396   2.919744
                   11         12         13
    11  H    0.000000
    12  H    4.497913   0.000000
    13  H    4.545618   1.613472   0.000000
 Stoichiometry    C3H7NO2
 Framework group  C1[X(C3H7NO2)]
 Deg. of freedom    33
 Full point group                 C1      NOp   1
 Largest Abelian subgroup         C1      NOp   1
 Largest concise Abelian subgroup C1      NOp   1
                         Standard orientation:                         
 ---------------------------------------------------------------------
 Center     Atomic      Atomic             Coordinates (Angstroms)
 Number     Number       Type             X           Y           Z
 ---------------------------------------------------------------------
      1          6           0       -1.187317    1.312207    0.395879
      2          6           0       -0.673855    0.108905   -0.393368
      3          6           0        0.783668   -0.181011   -0.042204
      4          8           0        1.189763   -1.205953    0.459294
      5          8           0        1.593385    0.866683   -0.292751
      6          7           0       -1.559074   -1.050657   -0.206016
      7          1           0       -1.171329    1.106610    1.467409
      8          1           0       -2.213326    1.527831    0.104911
      9          1           0       -0.585020    2.201601    0.215064
     10          1           0       -0.679617    0.352772   -1.456430
     11          1           0        2.494587    0.620646   -0.026721
     12          1           0       -1.200872   -1.846521   -0.725214
     13          1           0       -1.531074   -1.334779    0.768901
 ---------------------------------------------------------------------
 Rotational constants (GHZ):           5.0216221           3.1882115           2.1960924
 Standard basis: 6-311++G(2df,2p) (5D, 7F)
 There are   304 symmetry adapted cartesian basis functions of A   symmetry.
 There are   274 symmetry adapted basis functions of A   symmetry.
   274 basis functions,   396 primitive gaussians,   304 cartesian basis functions
    24 alpha electrons       24 beta electrons
       nuclear repulsion energy       248.8330177986 Hartrees.
 NAtoms=   13 NActive=   13 NUniq=   13 SFac= 1.00D+00 NAtFMM=   60 NAOKFM=F Big=F
 Integral buffers will be    131072 words long.
 Raffenetti 2 integral format.
 Two-electron integral symmetry is turned on.
 ------------------------------------------------------------------------------
 Polarizable Continuum Model (PCM)
 =================================
 Model                : PCM.
 Atomic radii         : UFF (Universal Force Field).
 Polarization charges : Total charges.
 Charge compensation  : None.
 Solution method      : On-the-fly selection.
 Cavity type          : Scaled VdW (van der Waals Surface) (Alpha=1.100).
 Cavity algorithm     : GePol (No added spheres)
                        Default sphere list used, NSphG=   13.
                        Lebedev-Laikov grids with approx.  5.0 points / Ang**2.
                        Smoothing algorithm: York/Karplus (Gamma=1.0000).
                        Polarization charges: spherical gaussians, with
                                              point-specific exponents (IZeta= 3).
                        Self-potential: point-specific (ISelfS= 7).
                        Self-field    : sphere-specific E.n sum rule (ISelfD= 2).
 1st derivatives      : Analytical E(r).r(x)/FMM algorithm (CHGder, D1EAlg=3).
                        Cavity 1st derivative terms included.
 Solvent              : Water, Eps=  78.355300 Eps(inf)=   1.777849
 ------------------------------------------------------------------------------
 Spheres list:
 ISph  on   Nord     Re0    Alpha      Xe            Ye            Ze
    1   C      1    1.9255  1.100     -1.187317      1.312207      0.395879
    2   C      2    1.9255  1.100     -0.673855      0.108905     -0.393368
    3   C      3    1.9255  1.100      0.783668     -0.181011     -0.042204
    4   O      4    1.7500  1.100      1.189763     -1.205953      0.459294
    5   O      5    1.7500  1.100      1.593385      0.866683     -0.292751
    6   N      6    1.8300  1.100     -1.559074     -1.050657     -0.206016
    7   H      7    1.4430  1.100     -1.171329      1.106610      1.467409
    8   H      8    1.4430  1.100     -2.213326      1.527831      0.104911
    9   H      9    1.4430  1.100     -0.585020      2.201601      0.215064
   10   H     10    1.4430  1.100     -0.679617      0.352772     -1.456430
   11   H     11    1.4430  1.100      2.494587      0.620646     -0.026721
   12   H     12    1.4430  1.100     -1.200872     -1.846521     -0.725214
   13   H     13    1.4430  1.100     -1.531074     -1.334779      0.768901
 ------------------------------------------------------------------------------
 One-electron integrals computed using PRISM.
 NBasis=   274 RedAO= T EigKep=  2.08D-05  NBF=   274
 NBsUse=   274 1.00D-06 EigRej= -1.00D+00 NBFU=   274
 Initial guess from the checkpoint file:  "Alanine_348K.chk"
 B after Tr=     0.000000    0.000000   -0.000000
         Rot=    0.999766    0.002165   -0.000780    0.021528 Ang=   2.48 deg.
 ExpMin= 3.60D-02 ExpMax= 8.59D+03 ExpMxC= 1.30D+03 IAcc=3 IRadAn=         5 AccDes= 0.00D+00
 Harris functional with IExCor=  402 and IRadAn=       5 diagonalized for initial guess.
 HarFok:  IExCor=  402 AccDes= 0.00D+00 IRadAn=         5 IDoV= 1 UseB2=F ITyADJ=14
 ICtDFT=  3500011 ScaDFX=  1.000000  1.000000  1.000000  1.000000
 FoFCou: FMM=F IPFlag=           0 FMFlag=      100000 FMFlg1=           0
         NFxFlg=           0 DoJE=T BraDBF=F KetDBF=T FulRan=T
         wScrn=  0.000000 ICntrl=       500 IOpCl=  0 I1Cent=   200000004 NGrid=           0
         NMat0=    1 NMatS0=      1 NMatT0=    0 NMatD0=    1 NMtDS0=    0 NMtDT0=    0
 Petite list used in FoFCou.
 Requested convergence on RMS density matrix=1.00D-08 within 128 cycles.
 Requested convergence on MAX density matrix=1.00D-06.
 Requested convergence on             energy=1.00D-06.
 No special actions if energy rises.
 Inv3:  Mode=1 IEnd=     3656448.
 Iteration    1 A*A^-1 deviation from unit magnitude is 2.44D-15 for    205.
 Iteration    1 A*A^-1 deviation from orthogonality  is 1.61D-15 for    880    305.
 Iteration    1 A^-1*A deviation from unit magnitude is 2.66D-15 for    418.
 Iteration    1 A^-1*A deviation from orthogonality  is 2.22D-15 for   1021    458.
 Error on total polarization charges =  0.01188
 SCF Done:  E(RB3LYP) =  -323.882643603     A.U. after   10 cycles
            NFock= 10  Conv=0.45D-08     -V/T= 2.0040
 D1PCM: PCM CHGder 1st derivatives, ID1Alg=3 FixD1E=F DoIter=F DoCFld=F I1PDM=0.
 Calling FoFJK, ICntrl=      2127 FMM=F ISym2X=0 I1Cent= 0 IOpClX= 0 NMat=1 NMatS=1 NMatT=0.
 ***** Axes restored to original set *****
 -------------------------------------------------------------------
 Center     Atomic                   Forces (Hartrees/Bohr)
 Number     Number              X              Y              Z
 -------------------------------------------------------------------
      1        6           0.001798085    0.000447745    0.002756442
      2        6          -0.006960364    0.001648904   -0.004634781
      3        6          -0.001502691   -0.007890331    0.006080433
      4        8           0.002193070    0.004225358   -0.001331866
      5        8          -0.001665466    0.000027172   -0.003116571
      6        7           0.006836453   -0.004091328   -0.000449189
      7        1          -0.000470419    0.000036035    0.000050546
      8        1          -0.000630003    0.000076458   -0.000317273
      9        1          -0.001265114   -0.000265269   -0.000989135
     10        1           0.001317020    0.001564555    0.000168181
     11        1           0.000012292    0.001788459    0.000507596
     12        1           0.000716949    0.001274217    0.000796350
     13        1          -0.000379812    0.001158026    0.000479267
 -------------------------------------------------------------------
 Cartesian Forces:  Max     0.007890331 RMS     0.002779501

 GradGradGradGradGradGradGradGradGradGradGradGradGradGradGradGradGradGrad
 Berny optimization.
 Using GEDIIS/GDIIS optimizer.
 FormGI is forming the generalized inverse of G from B-inverse, IUseBI=4.
 Internal  Forces:  Max     0.007280657 RMS     0.001490078
 Search for a local minimum.
 Step number   2 out of a maximum of   64
 All quantities printed in internal units (Hartrees-Bohrs-Radians)
 Mixed Optimization -- RFO/linear search
 Update second derivatives using D2CorX and points    1    2
 DE= -2.15D-03 DEPred=-2.33D-03 R= 9.20D-01
 TightC=F SS=  1.41D+00  RLast= 2.65D-01 DXNew= 5.0454D-01 7.9393D-01
 Trust test= 9.20D-01 RLast= 2.65D-01 DXMaxT set to 5.05D-01
 ITU=  1  0
 Use linear search instead of GDIIS.
     Eigenvalues ---    0.00310   0.00477   0.00625   0.00980   0.02368
     Eigenvalues ---    0.04223   0.04822   0.05433   0.05544   0.05739
     Eigenvalues ---    0.06291   0.14926   0.16000   0.16000   0.16000
     Eigenvalues ---    0.16000   0.16315   0.17563   0.19120   0.24053
     Eigenvalues ---    0.25190   0.29045   0.29964   0.32696   0.34121
     Eigenvalues ---    0.34199   0.34242   0.35480   0.43685   0.44009
     Eigenvalues ---    0.50664   0.55311   0.90100
 RFO step:  Lambda=-2.43044064D-03 EMin= 3.09815783D-03
 Quartic linear search produced a step of -0.00677.
 Iteration  1 RMS(Cart)=  0.07950520 RMS(Int)=  0.00796004
 Iteration  2 RMS(Cart)=  0.01204865 RMS(Int)=  0.00252954
 Iteration  3 RMS(Cart)=  0.00013556 RMS(Int)=  0.00252802
 Iteration  4 RMS(Cart)=  0.00000035 RMS(Int)=  0.00252802
 Variable       Old X    -DE/DX   Delta X   Delta X   Delta X     New X
                                 (Linear)    (Quad)   (Total)
    R1        2.88732   0.00123  -0.00008   0.01079   0.01071   2.89803
    R2        2.06206   0.00016   0.00006  -0.00513  -0.00507   2.05699
    R3        2.05611   0.00015   0.00010  -0.00781  -0.00772   2.04840
    R4        2.05840  -0.00128   0.00007  -0.01011  -0.01004   2.04836
    R5        2.88562   0.00048   0.00008  -0.00565  -0.00556   2.88005
    R6        2.77944  -0.00728   0.00013  -0.03160  -0.03148   2.74796
    R7        2.06111   0.00148   0.00006  -0.00092  -0.00086   2.06025
    R8        2.28877  -0.00416   0.00015  -0.01760  -0.01744   2.27132
    R9        2.54663  -0.00164   0.00001  -0.00410  -0.00409   2.54254
   R10        1.83554  -0.00178   0.00012  -0.01358  -0.01347   1.82207
   R11        1.91905  -0.00120   0.00008  -0.00979  -0.00971   1.90934
   R12        1.91970  -0.00044   0.00008  -0.00833  -0.00824   1.91145
    A1        1.93257   0.00009   0.00006  -0.00510  -0.00511   1.92747
    A2        1.91222  -0.00061   0.00018  -0.01952  -0.01942   1.89281
    A3        1.95140  -0.00121  -0.00009   0.00071   0.00063   1.95202
    A4        1.88995   0.00016  -0.00001   0.00107   0.00091   1.89086
    A5        1.88467   0.00069  -0.00007   0.01097   0.01090   1.89558
    A6        1.89147   0.00096  -0.00008   0.01268   0.01260   1.90407
    A7        1.92997   0.00074   0.00002  -0.00107  -0.00152   1.92844
    A8        1.93139  -0.00069  -0.00025   0.01393   0.01347   1.94486
    A9        1.90245  -0.00054   0.00019  -0.02180  -0.02168   1.88077
   A10        1.97740  -0.00037  -0.00033   0.02428   0.02381   2.00122
   A11        1.84589   0.00024   0.00028  -0.01690  -0.01673   1.82916
   A12        1.87261   0.00065   0.00010  -0.00195  -0.00164   1.87097
   A13        2.18453   0.00073   0.00013  -0.00500  -0.01506   2.16948
   A14        1.96400  -0.00148   0.00008  -0.00841  -0.01879   1.94521
   A15        2.13344   0.00090  -0.00021   0.02569   0.01460   2.14804
   A16        1.88560   0.00090  -0.00036   0.03615   0.03579   1.92139
   A17        1.91818  -0.00026  -0.00019   0.01944   0.01887   1.93705
   A18        1.90303   0.00140  -0.00010   0.02151   0.02103   1.92406
   A19        1.83563   0.00040  -0.00012   0.02206   0.02119   1.85682
    D1       -1.09637   0.00016   0.00050  -0.04208  -0.04147  -1.13785
    D2        1.10929  -0.00029  -0.00007  -0.00089  -0.00091   1.10838
    D3       -3.11851  -0.00023   0.00002  -0.00832  -0.00832  -3.12683
    D4        3.10336   0.00029   0.00036  -0.02786  -0.02748   3.07587
    D5       -0.97417  -0.00015  -0.00022   0.01333   0.01308  -0.96109
    D6        1.08122  -0.00010  -0.00013   0.00590   0.00567   1.08689
    D7        1.00610   0.00028   0.00040  -0.03117  -0.03071   0.97539
    D8       -3.07143  -0.00017  -0.00018   0.01002   0.00985  -3.06158
    D9       -1.01604  -0.00011  -0.00009   0.00259   0.00244  -1.01360
   D10        2.06469   0.00103   0.00029   0.06749   0.06662   2.13132
   D11       -1.02486  -0.00218  -0.00024  -0.19717  -0.19627  -1.22112
   D12       -0.11506   0.00165   0.00082   0.03145   0.03105  -0.08401
   D13        3.07858  -0.00156   0.00030  -0.23321  -0.23184   2.84674
   D14       -2.16139   0.00091   0.00071   0.03136   0.03100  -2.13039
   D15        1.03224  -0.00230   0.00018  -0.23330  -0.23189   0.80035
   D16       -3.12870  -0.00084   0.00028  -0.03994  -0.04002   3.11447
   D17       -1.12512   0.00027  -0.00002   0.00910   0.00914  -1.11598
   D18       -0.94972  -0.00069  -0.00010  -0.01196  -0.01212  -0.96184
   D19        1.05386   0.00042  -0.00039   0.03708   0.03704   1.09090
   D20        1.08092  -0.00019   0.00013  -0.02028  -0.02035   1.06057
   D21        3.08450   0.00092  -0.00017   0.02876   0.02880   3.11330
   D22        3.11722   0.00172   0.00018   0.13935   0.14095  -3.02502
   D23        0.02593  -0.00138  -0.00032  -0.11543  -0.11716  -0.09124
         Item               Value     Threshold  Converged?
 Maximum Force            0.007281     0.000450     NO 
 RMS     Force            0.001490     0.000300     NO 
 Maximum Displacement     0.325024     0.001800     NO 
 RMS     Displacement     0.085533     0.001200     NO 
 Predicted change in Energy=-1.440966D-03
 GradGradGradGradGradGradGradGradGradGradGradGradGradGradGradGradGradGrad

                          Input orientation:                          
 ---------------------------------------------------------------------
 Center     Atomic      Atomic             Coordinates (Angstroms)
 Number     Number       Type             X           Y           Z
 ---------------------------------------------------------------------
      1          6           0        1.069872   -0.053109   -0.044218
      2          6           0        0.548769   -0.332563   -1.459209
      3          6           0        1.070292   -1.672353   -1.964908
      4          8           0        0.369185   -2.581755   -2.319985
      5          8           0        2.391935   -1.624264   -2.212287
      6          7           0       -0.894984   -0.176004   -1.534314
      7          1           0        0.667716   -0.779852    0.659323
      8          1           0        0.735441    0.933325    0.255921
      9          1           0        2.152231   -0.089728    0.001499
     10          1           0        0.988529    0.407841   -2.127809
     11          1           0        2.681113   -2.444802   -2.627943
     12          1           0       -1.227955   -0.336809   -2.474599
     13          1           0       -1.352322   -0.862048   -0.948383
 ---------------------------------------------------------------------
                    Distance matrix (angstroms):
                    1          2          3          4          5
     1  C    0.000000
     2  C    1.533572   0.000000
     3  C    2.512171   1.524059   0.000000
     4  O    3.473346   2.414964   1.201933   0.000000
     5  O    2.986118   2.373368   1.345455   2.240515   0.000000
     6  N    2.469038   1.454158   2.507346   2.828965   3.655262
     7  H    1.088510   2.168500   2.800931   3.494603   3.454288
     8  H    1.083964   2.139857   3.440024   4.373240   3.921388
     9  H    1.083943   2.182596   2.746280   3.844313   2.704276
    10  H    2.135520   1.090235   2.088164   3.059118   2.471059
    11  H    3.871942   3.220930   1.905529   2.336366   0.964198
    12  H    3.356672   2.046408   2.706549   2.759447   3.850968
    13  H    2.709044   2.038491   2.749360   2.793255   4.024660
                    6          7          8          9         10
     6  N    0.000000
     7  H    2.760200   0.000000
     8  H    2.663426   1.761333   0.000000
     9  H    3.413456   1.764310   1.765973   0.000000
    10  H    2.059304   3.046579   2.454049   2.477041   0.000000
    11  H    4.374008   4.199042   4.849130   3.569322   3.354482
    12  H    1.010378   3.689353   3.594983   4.197353   2.363804
    13  H    1.011498   2.583027   3.005406   3.712229   2.912601
                   11         12         13
    11  H    0.000000
    12  H    4.443869   0.000000
    13  H    4.647003   1.618851   0.000000
 Stoichiometry    C3H7NO2
 Framework group  C1[X(C3H7NO2)]
 Deg. of freedom    33
 Full point group                 C1      NOp   1
 Largest Abelian subgroup         C1      NOp   1
 Largest concise Abelian subgroup C1      NOp   1
                         Standard orientation:                         
 ---------------------------------------------------------------------
 Center     Atomic      Atomic             Coordinates (Angstroms)
 Number     Number       Type             X           Y           Z
 ---------------------------------------------------------------------
      1          6           0       -1.266340    1.273434    0.415496
      2          6           0       -0.657057    0.099244   -0.360321
      3          6           0        0.788778   -0.128139    0.064665
      4          8           0        1.208666   -1.161538    0.512351
      5          8           0        1.588672    0.867083   -0.359541
      6          7           0       -1.503309   -1.081142   -0.288753
      7          1           0       -1.333113    1.034841    1.475435
      8          1           0       -2.268577    1.448506    0.041530
      9          1           0       -0.681888    2.179100    0.300971
     10          1           0       -0.596650    0.389459   -1.409482
     11          1           0        2.510204    0.653835   -0.172504
     12          1           0       -1.108291   -1.842484   -0.822778
     13          1           0       -1.569518   -1.406858    0.666577
 ---------------------------------------------------------------------
 Rotational constants (GHZ):           5.0443659           3.1318279           2.2104817
 Standard basis: 6-311++G(2df,2p) (5D, 7F)
 There are   304 symmetry adapted cartesian basis functions of A   symmetry.
 There are   274 symmetry adapted basis functions of A   symmetry.
   274 basis functions,   396 primitive gaussians,   304 cartesian basis functions
    24 alpha electrons       24 beta electrons
       nuclear repulsion energy       249.1351569505 Hartrees.
 NAtoms=   13 NActive=   13 NUniq=   13 SFac= 1.00D+00 NAtFMM=   60 NAOKFM=F Big=F
 Integral buffers will be    131072 words long.
 Raffenetti 2 integral format.
 Two-electron integral symmetry is turned on.
 ------------------------------------------------------------------------------
 Polarizable Continuum Model (PCM)
 =================================
 Model                : PCM.
 Atomic radii         : UFF (Universal Force Field).
 Polarization charges : Total charges.
 Charge compensation  : None.
 Solution method      : On-the-fly selection.
 Cavity type          : Scaled VdW (van der Waals Surface) (Alpha=1.100).
 Cavity algorithm     : GePol (No added spheres)
                        Default sphere list used, NSphG=   13.
                        Lebedev-Laikov grids with approx.  5.0 points / Ang**2.
                        Smoothing algorithm: York/Karplus (Gamma=1.0000).
                        Polarization charges: spherical gaussians, with
                                              point-specific exponents (IZeta= 3).
                        Self-potential: point-specific (ISelfS= 7).
                        Self-field    : sphere-specific E.n sum rule (ISelfD= 2).
 1st derivatives      : Analytical E(r).r(x)/FMM algorithm (CHGder, D1EAlg=3).
                        Cavity 1st derivative terms included.
 Solvent              : Water, Eps=  78.355300 Eps(inf)=   1.777849
 ------------------------------------------------------------------------------
 Spheres list:
 ISph  on   Nord     Re0    Alpha      Xe            Ye            Ze
    1   C      1    1.9255  1.100     -1.266340      1.273434      0.415496
    2   C      2    1.9255  1.100     -0.657057      0.099244     -0.360321
    3   C      3    1.9255  1.100      0.788778     -0.128139      0.064665
    4   O      4    1.7500  1.100      1.208666     -1.161538      0.512351
    5   O      5    1.7500  1.100      1.588672      0.867083     -0.359541
    6   N      6    1.8300  1.100     -1.503309     -1.081142     -0.288753
    7   H      7    1.4430  1.100     -1.333113      1.034841      1.475435
    8   H      8    1.4430  1.100     -2.268577      1.448506      0.041530
    9   H      9    1.4430  1.100     -0.681888      2.179100      0.300971
   10   H     10    1.4430  1.100     -0.596650      0.389459     -1.409482
   11   H     11    1.4430  1.100      2.510204      0.653835     -0.172504
   12   H     12    1.4430  1.100     -1.108291     -1.842484     -0.822778
   13   H     13    1.4430  1.100     -1.569518     -1.406858      0.666577
 ------------------------------------------------------------------------------
 One-electron integrals computed using PRISM.
 NBasis=   274 RedAO= T EigKep=  2.09D-05  NBF=   274
 NBsUse=   274 1.00D-06 EigRej= -1.00D+00 NBFU=   274
 Initial guess from the checkpoint file:  "Alanine_348K.chk"
 B after Tr=    -0.000000   -0.000000    0.000000
         Rot=    0.999874   -0.001220    0.007971   -0.013657 Ang=  -1.82 deg.
 ExpMin= 3.60D-02 ExpMax= 8.59D+03 ExpMxC= 1.30D+03 IAcc=3 IRadAn=         5 AccDes= 0.00D+00
 Harris functional with IExCor=  402 and IRadAn=       5 diagonalized for initial guess.
 HarFok:  IExCor=  402 AccDes= 0.00D+00 IRadAn=         5 IDoV= 1 UseB2=F ITyADJ=14
 ICtDFT=  3500011 ScaDFX=  1.000000  1.000000  1.000000  1.000000
 FoFCou: FMM=F IPFlag=           0 FMFlag=      100000 FMFlg1=           0
         NFxFlg=           0 DoJE=T BraDBF=F KetDBF=T FulRan=T
         wScrn=  0.000000 ICntrl=       500 IOpCl=  0 I1Cent=   200000004 NGrid=           0
         NMat0=    1 NMatS0=      1 NMatT0=    0 NMatD0=    1 NMtDS0=    0 NMtDT0=    0
 Petite list used in FoFCou.
 Requested convergence on RMS density matrix=1.00D-08 within 128 cycles.
 Requested convergence on MAX density matrix=1.00D-06.
 Requested convergence on             energy=1.00D-06.
 No special actions if energy rises.
 Inv3:  Mode=1 IEnd=     3663075.
 Iteration    1 A*A^-1 deviation from unit magnitude is 3.33D-15 for    743.
 Iteration    1 A*A^-1 deviation from orthogonality  is 1.67D-15 for    785     96.
 Iteration    1 A^-1*A deviation from unit magnitude is 3.11D-15 for    743.
 Iteration    1 A^-1*A deviation from orthogonality  is 1.67D-15 for    793    128.
 Error on total polarization charges =  0.01195
 SCF Done:  E(RB3LYP) =  -323.880721792     A.U. after   11 cycles
            NFock= 11  Conv=0.26D-08     -V/T= 2.0037
 D1PCM: PCM CHGder 1st derivatives, ID1Alg=3 FixD1E=F DoIter=F DoCFld=F I1PDM=0.
 Calling FoFJK, ICntrl=      2127 FMM=F ISym2X=0 I1Cent= 0 IOpClX= 0 NMat=1 NMatS=1 NMatT=0.
 ***** Axes restored to original set *****
 -------------------------------------------------------------------
 Center     Atomic                   Forces (Hartrees/Bohr)
 Number     Number              X              Y              Z
 -------------------------------------------------------------------
      1        6          -0.005438026    0.000154476   -0.001494864
      2        6           0.003965654    0.003436385    0.006675636
      3        6          -0.002916545    0.014905202   -0.023096733
      4        8          -0.002815131   -0.014321667    0.005258959
      5        8           0.003103988    0.001897506    0.008904717
      6        7           0.002873571   -0.001411301    0.003676320
      7        1          -0.000384955   -0.001045115    0.001586951
      8        1           0.000112811    0.002709093    0.002202821
      9        1           0.002227329   -0.000379360   -0.000659446
     10        1           0.001365911    0.000472638   -0.001083161
     11        1          -0.000370932   -0.004793594   -0.001229167
     12        1           0.000024683   -0.000438731   -0.002254464
     13        1          -0.001748358   -0.001185532    0.001512431
 -------------------------------------------------------------------
 Cartesian Forces:  Max     0.023096733 RMS     0.005743365

 GradGradGradGradGradGradGradGradGradGradGradGradGradGradGradGradGradGrad
 Berny optimization.
 Using GEDIIS/GDIIS optimizer.
 FormGI is forming the generalized inverse of G from B-inverse, IUseBI=4.
 Internal  Forces:  Max     0.010925205 RMS     0.003117191
 Search for a local minimum.
 Step number   3 out of a maximum of   64
 All quantities printed in internal units (Hartrees-Bohrs-Radians)
 Mixed Optimization -- RFO/linear search
 Update second derivatives using D2CorX and points    1    3    2
 DE=  1.92D-03 DEPred=-1.44D-03 R=-1.33D+00
 Trust test=-1.33D+00 RLast= 4.49D-01 DXMaxT set to 2.52D-01
 ITU= -1  1  0
 Use linear search instead of GDIIS.
     Eigenvalues ---    0.00315   0.00477   0.00626   0.02367   0.03770
     Eigenvalues ---    0.04276   0.04988   0.05559   0.05780   0.05913
     Eigenvalues ---    0.06258   0.14965   0.15999   0.16000   0.16000
     Eigenvalues ---    0.16040   0.16323   0.17774   0.19607   0.23968
     Eigenvalues ---    0.25190   0.29232   0.29545   0.31563   0.34120
     Eigenvalues ---    0.34203   0.34261   0.34727   0.43852   0.43997
     Eigenvalues ---    0.50973   0.55264   0.91679
 RFO step:  Lambda=-5.00170392D-04 EMin= 3.15038989D-03
 Quartic linear search produced a step of -0.71358.
 Iteration  1 RMS(Cart)=  0.04077847 RMS(Int)=  0.00211846
 Iteration  2 RMS(Cart)=  0.00304303 RMS(Int)=  0.00028275
 Iteration  3 RMS(Cart)=  0.00000298 RMS(Int)=  0.00028273
 Iteration  4 RMS(Cart)=  0.00000000 RMS(Int)=  0.00028273
 Variable       Old X    -DE/DX   Delta X   Delta X   Delta X     New X
                                 (Linear)    (Quad)   (Total)
    R1        2.89803   0.00059  -0.00764   0.00509  -0.00256   2.89547
    R2        2.05699   0.00186   0.00362   0.00118   0.00480   2.06178
    R3        2.04840   0.00304   0.00551   0.00178   0.00728   2.05568
    R4        2.04836   0.00221   0.00716  -0.00233   0.00483   2.05319
    R5        2.88005   0.00438   0.00397   0.00472   0.00869   2.88874
    R6        2.74796  -0.00162   0.02246  -0.02138   0.00108   2.74904
    R7        2.06025   0.00154   0.00061   0.00436   0.00498   2.06522
    R8        2.27132   0.01093   0.01245  -0.00241   0.01004   2.28136
    R9        2.54254   0.00117   0.00292  -0.00217   0.00075   2.54329
   R10        1.82207   0.00450   0.00961  -0.00196   0.00765   1.82972
   R11        1.90934   0.00216   0.00693  -0.00198   0.00495   1.91429
   R12        1.91145   0.00247   0.00588  -0.00029   0.00559   1.91704
    A1        1.92747   0.00065   0.00365   0.00082   0.00448   1.93194
    A2        1.89281   0.00265   0.01385  -0.00061   0.01328   1.90609
    A3        1.95202  -0.00184  -0.00045  -0.00912  -0.00956   1.94247
    A4        1.89086  -0.00105  -0.00065  -0.00033  -0.00095   1.88991
    A5        1.89558   0.00013  -0.00778   0.00436  -0.00342   1.89215
    A6        1.90407  -0.00055  -0.00899   0.00515  -0.00380   1.90027
    A7        1.92844   0.00351   0.00109   0.00391   0.00486   1.93330
    A8        1.94486  -0.00256  -0.00961  -0.00860  -0.01823   1.92663
    A9        1.88077   0.00001   0.01547  -0.00458   0.01092   1.89168
   A10        2.00122  -0.00211  -0.01699  -0.00463  -0.02165   1.97957
   A11        1.82916  -0.00069   0.01194   0.00393   0.01594   1.84510
   A12        1.87097   0.00204   0.00117   0.01099   0.01221   1.88318
   A13        2.16948   0.00519   0.01074   0.00682   0.01867   2.18815
   A14        1.94521   0.00067   0.01341  -0.00520   0.00932   1.95453
   A15        2.14804  -0.00375  -0.01042   0.00175  -0.00755   2.14049
   A16        1.92139  -0.00360  -0.02554   0.00288  -0.02266   1.89873
   A17        1.93705  -0.00143  -0.01347   0.00326  -0.00994   1.92711
   A18        1.92406   0.00144  -0.01501   0.01639   0.00165   1.92571
   A19        1.85682   0.00012  -0.01512   0.01368  -0.00090   1.85591
    D1       -1.13785   0.00137   0.02959  -0.00717   0.02241  -1.11544
    D2        1.10838  -0.00067   0.00065  -0.01704  -0.01641   1.09197
    D3       -3.12683   0.00037   0.00594  -0.01133  -0.00539  -3.13222
    D4        3.07587   0.00066   0.01961  -0.00689   0.01272   3.08859
    D5       -0.96109  -0.00138  -0.00933  -0.01676  -0.02610  -0.98719
    D6        1.08689  -0.00034  -0.00405  -0.01104  -0.01508   1.07181
    D7        0.97539   0.00074   0.02192  -0.00723   0.01469   0.99008
    D8       -3.06158  -0.00130  -0.00703  -0.01710  -0.02412  -3.08570
    D9       -1.01360  -0.00026  -0.00174  -0.01138  -0.01310  -1.02670
   D10        2.13132  -0.00609  -0.04754  -0.10524  -0.15280   1.97851
   D11       -1.22112   0.00406   0.14005  -0.08805   0.05195  -1.16917
   D12       -0.08401  -0.00387  -0.02216  -0.09306  -0.11518  -0.19919
   D13        2.84674   0.00628   0.16544  -0.07587   0.08957   2.93631
   D14       -2.13039  -0.00480  -0.02212  -0.10660  -0.12869  -2.25908
   D15        0.80035   0.00536   0.16547  -0.08941   0.07607   0.87642
   D16        3.11447  -0.00034   0.02855  -0.01200   0.01661   3.13108
   D17       -1.11598  -0.00017  -0.00652   0.01718   0.01043  -1.10556
   D18       -0.96184   0.00053   0.00865  -0.01785  -0.00897  -0.97081
   D19        1.09090   0.00071  -0.02643   0.01133  -0.01516   1.07574
   D20        1.06057  -0.00017   0.01452  -0.00835   0.00631   1.06687
   D21        3.11330   0.00001  -0.02055   0.02083   0.00012   3.11343
   D22       -3.02502  -0.00623  -0.10058  -0.00887  -0.10947  -3.13449
   D23       -0.09124   0.00503   0.08361   0.00881   0.09244   0.00120
         Item               Value     Threshold  Converged?
 Maximum Force            0.010925     0.000450     NO 
 RMS     Force            0.003117     0.000300     NO 
 Maximum Displacement     0.129892     0.001800     NO 
 RMS     Displacement     0.040759     0.001200     NO 
 Predicted change in Energy=-6.652448D-04
 GradGradGradGradGradGradGradGradGradGradGradGradGradGradGradGradGradGrad

                          Input orientation:                          
 ---------------------------------------------------------------------
 Center     Atomic      Atomic             Coordinates (Angstroms)
 Number     Number       Type             X           Y           Z
 ---------------------------------------------------------------------
      1          6           0        1.066787   -0.059496   -0.058641
      2          6           0        0.552209   -0.299957   -1.481696
      3          6           0        1.063891   -1.634061   -2.024965
      4          8           0        0.378555   -2.596114   -2.274380
      5          8           0        2.396958   -1.624848   -2.209810
      6          7           0       -0.896569   -0.175643   -1.524491
      7          1           0        0.674157   -0.813038    0.625757
      8          1           0        0.733043    0.918135    0.282245
      9          1           0        2.152086   -0.093456   -0.020492
     10          1           0        0.974609    0.467390   -2.135240
     11          1           0        2.669313   -2.485804   -2.559208
     12          1           0       -1.236334   -0.324793   -2.467082
     13          1           0       -1.328885   -0.890434   -0.948907
 ---------------------------------------------------------------------
                    Distance matrix (angstroms):
                    1          2          3          4          5
     1  C    0.000000
     2  C    1.532219   0.000000
     3  C    2.519066   1.528658   0.000000
     4  O    3.437673   2.435332   1.207245   0.000000
     5  O    2.974426   2.385076   1.345853   2.240866   0.000000
     6  N    2.452952   1.454731   2.494165   2.836716   3.662947
     7  H    1.091048   2.172436   2.802195   3.417241   3.415775
     8  H    1.087819   2.151263   3.456354   4.360268   3.930103
     9  H    1.086500   2.176549   2.752371   3.806406   2.682954
    10  H    2.144380   1.092869   2.106236   3.124052   2.531027
    11  H    3.835087   3.228172   1.894271   2.311031   0.968247
    12  H    3.342953   2.042177   2.683409   2.793546   3.867446
    13  H    2.687429   2.042312   2.726950   2.753466   4.001393
                    6          7          8          9         10
     6  N    0.000000
     7  H    2.738068   0.000000
     8  H    2.667636   1.765907   0.000000
     9  H    3.400451   1.766270   1.768798   0.000000
    10  H    2.070704   3.058246   2.470983   2.484584   0.000000
    11  H    4.372985   4.113732   4.838367   3.526462   3.431199
    12  H    1.012997   3.667970   3.603069   4.185774   2.371906
    13  H    1.014455   2.549065   3.006360   3.689754   2.925261
                   11         12         13
    11  H    0.000000
    12  H    4.464587   0.000000
    13  H    4.596070   1.622766   0.000000
 Stoichiometry    C3H7NO2
 Framework group  C1[X(C3H7NO2)]
 Deg. of freedom    33
 Full point group                 C1      NOp   1
 Largest Abelian subgroup         C1      NOp   1
 Largest concise Abelian subgroup C1      NOp   1
                         Standard orientation:                         
 ---------------------------------------------------------------------
 Center     Atomic      Atomic             Coordinates (Angstroms)
 Number     Number       Type             X           Y           Z
 ---------------------------------------------------------------------
      1          6           0       -1.233002    1.274047    0.438130
      2          6           0       -0.666389    0.114526   -0.387797
      3          6           0        0.788020   -0.162231   -0.007145
      4          8           0        1.189999   -1.162559    0.536173
      5          8           0        1.601896    0.851072   -0.356636
      6          7           0       -1.525576   -1.054110   -0.276753
      7          1           0       -1.262190    1.014636    1.497489
      8          1           0       -2.248661    1.484339    0.110160
      9          1           0       -0.632769    2.172108    0.321140
     10          1           0       -0.645152    0.417249   -1.437688
     11          1           0        2.508176    0.625478   -0.101164
     12          1           0       -1.156601   -1.817868   -0.830553
     13          1           0       -1.550701   -1.383328    0.682467
 ---------------------------------------------------------------------
 Rotational constants (GHZ):           5.0586255           3.1187452           2.2237645
 Standard basis: 6-311++G(2df,2p) (5D, 7F)
 There are   304 symmetry adapted cartesian basis functions of A   symmetry.
 There are   274 symmetry adapted basis functions of A   symmetry.
   274 basis functions,   396 primitive gaussians,   304 cartesian basis functions
    24 alpha electrons       24 beta electrons
       nuclear repulsion energy       248.9788423372 Hartrees.
 NAtoms=   13 NActive=   13 NUniq=   13 SFac= 1.00D+00 NAtFMM=   60 NAOKFM=F Big=F
 Integral buffers will be    131072 words long.
 Raffenetti 2 integral format.
 Two-electron integral symmetry is turned on.
 ------------------------------------------------------------------------------
 Polarizable Continuum Model (PCM)
 =================================
 Model                : PCM.
 Atomic radii         : UFF (Universal Force Field).
 Polarization charges : Total charges.
 Charge compensation  : None.
 Solution method      : On-the-fly selection.
 Cavity type          : Scaled VdW (van der Waals Surface) (Alpha=1.100).
 Cavity algorithm     : GePol (No added spheres)
                        Default sphere list used, NSphG=   13.
                        Lebedev-Laikov grids with approx.  5.0 points / Ang**2.
                        Smoothing algorithm: York/Karplus (Gamma=1.0000).
                        Polarization charges: spherical gaussians, with
                                              point-specific exponents (IZeta= 3).
                        Self-potential: point-specific (ISelfS= 7).
                        Self-field    : sphere-specific E.n sum rule (ISelfD= 2).
 1st derivatives      : Analytical E(r).r(x)/FMM algorithm (CHGder, D1EAlg=3).
                        Cavity 1st derivative terms included.
 Solvent              : Water, Eps=  78.355300 Eps(inf)=   1.777849
 ------------------------------------------------------------------------------
 Spheres list:
 ISph  on   Nord     Re0    Alpha      Xe            Ye            Ze
    1   C      1    1.9255  1.100     -1.233002      1.274047      0.438130
    2   C      2    1.9255  1.100     -0.666389      0.114526     -0.387797
    3   C      3    1.9255  1.100      0.788020     -0.162231     -0.007145
    4   O      4    1.7500  1.100      1.189999     -1.162559      0.536173
    5   O      5    1.7500  1.100      1.601896      0.851072     -0.356636
    6   N      6    1.8300  1.100     -1.525576     -1.054110     -0.276753
    7   H      7    1.4430  1.100     -1.262190      1.014636      1.497489
    8   H      8    1.4430  1.100     -2.248661      1.484339      0.110160
    9   H      9    1.4430  1.100     -0.632769      2.172108      0.321140
   10   H     10    1.4430  1.100     -0.645152      0.417249     -1.437688
   11   H     11    1.4430  1.100      2.508176      0.625478     -0.101164
   12   H     12    1.4430  1.100     -1.156601     -1.817868     -0.830553
   13   H     13    1.4430  1.100     -1.550701     -1.383328      0.682467
 ------------------------------------------------------------------------------
 One-electron integrals computed using PRISM.
 NBasis=   274 RedAO= T EigKep=  2.12D-05  NBF=   274
 NBsUse=   274 1.00D-06 EigRej= -1.00D+00 NBFU=   274
 Lowest energy guess from the checkpoint file:  "Alanine_348K.chk"
 B after Tr=    -0.000000   -0.000000    0.000000
         Rot=    0.999962   -0.003223    0.005037   -0.006398 Ang=  -1.00 deg.
 B after Tr=     0.000000   -0.000000   -0.000000
         Rot=    0.999968   -0.002016   -0.003010    0.007174 Ang=  -0.92 deg.
 Requested convergence on RMS density matrix=1.00D-08 within 128 cycles.
 Requested convergence on MAX density matrix=1.00D-06.
 Requested convergence on             energy=1.00D-06.
 No special actions if energy rises.
 Inv3:  Mode=1 IEnd=     3682992.
 Iteration    1 A*A^-1 deviation from unit magnitude is 2.89D-15 for      3.
 Iteration    1 A*A^-1 deviation from orthogonality  is 1.35D-15 for    411    215.
 Iteration    1 A^-1*A deviation from unit magnitude is 3.33D-15 for      3.
 Iteration    1 A^-1*A deviation from orthogonality  is 1.46D-15 for    623    115.
 Error on total polarization charges =  0.01192
 SCF Done:  E(RB3LYP) =  -323.883266195     A.U. after   10 cycles
            NFock= 10  Conv=0.60D-08     -V/T= 2.0039
 D1PCM: PCM CHGder 1st derivatives, ID1Alg=3 FixD1E=F DoIter=F DoCFld=F I1PDM=0.
[...]
 ! R5    R(2,3)                  1.5283         -DE/DX =    0.0                 !
 ! R6    R(2,6)                  1.4545         -DE/DX =    0.0                 !
 ! R7    R(2,10)                 1.0911         -DE/DX =    0.0                 !
 ! R8    R(3,4)                  1.2081         -DE/DX =    0.0                 !
 ! R9    R(3,5)                  1.346          -DE/DX =    0.0                 !
 ! R10   R(5,11)                 0.9695         -DE/DX =    0.0                 !
 ! R11   R(6,12)                 1.0131         -DE/DX =    0.0                 !
 ! R12   R(6,13)                 1.014          -DE/DX =    0.0                 !
 ! A1    A(2,1,7)              110.5199         -DE/DX =    0.0                 !
 ! A2    A(2,1,8)              109.2675         -DE/DX =    0.0                 !
 ! A3    A(2,1,9)              111.3516         -DE/DX =    0.0                 !
 ! A4    A(7,1,8)              108.3843         -DE/DX =    0.0                 !
 ! A5    A(7,1,9)              108.4393         -DE/DX =    0.0                 !
 ! A6    A(8,1,9)              108.8118         -DE/DX =    0.0                 !
 ! A7    A(1,2,3)              109.1825         -DE/DX =    0.0                 !
 ! A8    A(1,2,6)              110.4064         -DE/DX =    0.0                 !
 ! A9    A(1,2,10)             108.5404         -DE/DX =    0.0                 !
 ! A10   A(3,2,6)              113.5724         -DE/DX =    0.0                 !
 ! A11   A(3,2,10)             106.6667         -DE/DX =    0.0                 !
 ! A12   A(6,2,10)             108.2934         -DE/DX =    0.0                 !
 ! A13   A(2,3,4)              125.3872         -DE/DX =    0.0                 !
 ! A14   A(2,3,5)              111.9141         -DE/DX =    0.0                 !
 ! A15   A(4,3,5)              122.6947         -DE/DX =    0.0                 !
 ! A16   A(3,5,11)             108.6771         -DE/DX =    0.0                 !
 ! A17   A(2,6,12)             110.8438         -DE/DX =    0.0                 !
 ! A18   A(2,6,13)             110.3401         -DE/DX =    0.0                 !
 ! A19   A(12,6,13)            106.5794         -DE/DX =    0.0                 !
 ! D1    D(7,1,2,3)            -64.7166         -DE/DX =    0.0                 !
 ! D2    D(7,1,2,6)             60.8179         -DE/DX =    0.0                 !
 ! D3    D(7,1,2,10)           179.373          -DE/DX =    0.0                 !
 ! D4    D(8,1,2,3)            176.1024         -DE/DX =    0.0                 !
 ! D5    D(8,1,2,6)            -58.363          -DE/DX =    0.0                 !
 ! D6    D(8,1,2,10)            60.1921         -DE/DX =    0.0                 !
 ! D7    D(9,1,2,3)             55.8761         -DE/DX =    0.0                 !
 ! D8    D(9,1,2,6)           -178.5894         -DE/DX =    0.0                 !
 ! D9    D(9,1,2,10)           -60.0343         -DE/DX =    0.0                 !
 ! D10   D(1,2,3,4)            103.7095         -DE/DX =    0.0                 !
 ! D11   D(1,2,3,5)            -75.5809         -DE/DX =    0.0                 !
 ! D12   D(6,2,3,4)            -19.9721         -DE/DX =    0.0                 !
 ! D13   D(6,2,3,5)            160.7375         -DE/DX =    0.0                 !
 ! D14   D(10,2,3,4)          -139.188          -DE/DX =    0.0                 !
 ! D15   D(10,2,3,5)            41.5216         -DE/DX =    0.0                 !
 ! D16   D(1,2,6,12)           177.712          -DE/DX =    0.0                 !
 ! D17   D(1,2,6,13)           -64.463          -DE/DX =    0.0                 !
 ! D18   D(3,2,6,12)           -59.2758         -DE/DX =    0.0                 !
 ! D19   D(3,2,6,13)            58.5492         -DE/DX =    0.0                 !
 ! D20   D(10,2,6,12)           59.0063         -DE/DX =    0.0                 !
 ! D21   D(10,2,6,13)          176.8313         -DE/DX =    0.0                 !
 ! D22   D(2,3,5,11)           177.9981         -DE/DX =    0.0                 !
 ! D23   D(4,3,5,11)            -1.3144         -DE/DX =    0.0                 !
 --------------------------------------------------------------------------------
 GradGradGradGradGradGradGradGradGradGradGradGradGradGradGradGradGradGrad


 ----------------------------------------------------------------------

 Electric dipole moment (input orientation):
 (Debye = 10**-18 statcoulomb cm , SI units = C m)
                  (au)            (Debye)         (10**-30 SI)
   Tot        0.717807D+00      0.182448D+01      0.608582D+01
   x          0.698299D+00      0.177490D+01      0.592042D+01
   y          0.122090D+00      0.310321D+00      0.103512D+01
   z         -0.112780D+00     -0.286658D+00     -0.956187D+00

 Dipole polarizability, Alpha (input orientation).
 (esu units = cm**3 , SI units = C**2 m**2 J**-1)
 Alpha(0;0):
               (au)            (10**-24 esu)      (10**-40 SI)
   iso        0.689861D+02      0.102227D+02      0.113743D+02
   aniso      0.152564D+02      0.226076D+01      0.251544D+01
   xx         0.738950D+02      0.109501D+02      0.121836D+02
   yx         0.168012D+00      0.248967D-01      0.277014D-01
   yy         0.711942D+02      0.105499D+02      0.117383D+02
   zx        -0.189409D+01     -0.280675D+00     -0.312293D+00
   zy         0.584433D+01      0.866041D+00      0.963600D+00
   zz         0.618690D+02      0.916803D+01      0.102008D+02

 ----------------------------------------------------------------------

 Dipole orientation:
     6          0.28696244          0.43375293          1.93456793
     6         -2.45979435          1.16855674          1.36703952
     6         -2.85617584          3.94941894          2.03799888
     8         -2.98545913          5.66590716          0.53822030
     8         -3.02367924          4.30508404          4.55099314
     7         -3.09455279          0.56515507         -1.23831988
     1          1.58084166          1.47520590          0.71304493
     1          0.53840119         -1.57658450          1.58166208
     1          0.77894462          0.83006571          3.89134310
     1         -3.69880271          0.07937424          2.60393984
     1         -3.21292741          6.09769928          4.87850231
     1         -4.92692952          0.98004583         -1.60666540
     1         -2.04214003          1.62132739         -2.44203052

 Electric dipole moment (dipole orientation):
 (Debye = 10**-18 statcoulomb cm , SI units = C m)
                  (au)            (Debye)         (10**-30 SI)
   Tot        0.717807D+00      0.182448D+01      0.608582D+01
   x          0.000000D+00      0.000000D+00      0.000000D+00
   y          0.000000D+00      0.000000D+00      0.000000D+00
   z          0.717807D+00      0.182448D+01      0.608582D+01

 Dipole polarizability, Alpha (dipole orientation).
 (esu units = cm**3 , SI units = C**2 m**2 J**-1)
 Alpha(0;0):
               (au)            (10**-24 esu)      (10**-40 SI)
   iso        0.689861D+02      0.102227D+02      0.113743D+02
   aniso      0.152564D+02      0.226076D+01      0.251544D+01
   xx         0.601526D+02      0.891369D+01      0.991782D+01
   yx        -0.402596D+01     -0.596585D+00     -0.663791D+00
   yy         0.729633D+02      0.108120D+02      0.120300D+02
   zx         0.124568D+01      0.184590D+00      0.205384D+00
   zy         0.105342D+01      0.156100D+00      0.173685D+00
   zz         0.738423D+02      0.109423D+02      0.121749D+02

 ----------------------------------------------------------------------
 1\1\GINC-A440\Freq\RB3LYP\6-311++G(2df,2p)\C3H7N1O2\MADANI\18-Aug-2025
 \0\\# freq b3lyp/6-311++g(2df,2p) scrf=(iefpcm,solvent=water) temperat
 ure=348 Geom=AllChk Guess=Read\\Aalanine | OPT @ 348 K\\0,1\C,1.056385
 2941,-0.0713848564,-0.0521589943\C,0.5551139662,-0.2937359337,-1.48512
 87255\C,1.072751134,-1.6381281689,-1.9952649542\O,0.4181005027,-2.6489
 516586,-2.0916183906\O,2.3772005652,-1.5827719105,-2.3224446428\N,-0.8
 929475858,-0.1688787353,-1.5409726431\H,0.6310534359,-0.816573342,0.62
 17480457\H,0.746818525,0.9150522522,0.2875653313\H,2.1411280331,-0.136
 9678428,0.0027487749\H,0.9900383373,0.473310378,-2.1277710383\H,2.6632
 11471,-2.4638678101,-2.6084455948\H,-1.2277669164,-0.2774359887,-2.490
 989858\H,-1.3312667624,-0.9017863831,-0.9941773102\\Version=ES64L-G16R
 evB.01\State=1-A\HF=-323.8833888\RMSD=3.713e-09\RMSF=7.204e-06\ZeroPoi
 nt=0.1073585\Thermal=0.116376\Dipole=0.6982989,0.1220899,-0.1127798\Di
 poleDeriv=0.0337426,0.075887,-0.0008216,0.029937,0.0495496,-0.0620302,
 -0.0884465,0.0332121,0.0892199,0.7256334,-0.2038222,0.0451077,0.033436
 8,0.1067636,-0.072836,0.1039117,-0.1220476,0.1716105,2.0242689,0.40867
 94,-0.4442228,0.4436541,1.5999432,0.3752752,-0.4149262,0.2627843,0.500
 1633,-1.039096,-0.2290097,0.0846024,-0.5278691,-1.3589277,-0.1754762,0
 .0272711,-0.1721775,-0.508024,-1.6440068,-0.1007831,0.3210915,0.179485
 7,-0.5012517,-0.0836631,0.3835548,-0.0014695,-0.5363462,-0.8091316,0.2
 026026,-0.0289906,0.1711594,-0.5508379,-0.0932486,-0.0170709,-0.085674
 ,-0.3918594,0.0386748,-0.0869114,0.0689765,-0.0837452,-0.0371104,0.113
 2958,0.0214941,0.0531858,-0.0404245,0.0826881,0.0611412,0.0161187,0.05
 16725,-0.1070267,-0.0875548,0.0028436,-0.0834654,0.0051485,-0.1411465,
 0.0045096,-0.0439805,0.0172662,0.102846,0.0006101,-0.0030857,-0.001611
 ,0.0535263,-0.0133243,-0.0094046,0.0438303,-0.0431256,-0.0163914,0.066
 3851,0.0647726,0.0742462,-0.0251226,0.3819595,-0.0413405,-0.0100087,-0
 .0291186,0.2517271,-0.0259832,0.0074988,-0.0244453,0.3969666,0.162281,
 -0.0519076,-0.001432,-0.1138164,0.3048367,-0.0970691,-0.0441091,-0.029
 2518,0.0638171,0.197457,-0.0296407,-0.0502709,-0.1289368,0.1558796,0.1
 42295,-0.0437083,0.0967137,0.2213245\Polar=73.8950494,0.1680115,71.194
 1979,-1.89409,5.8443334,61.8689503\Quadrupole=0.8946646,-3.207236,2.31
 25714,-1.3277389,-0.208161,-0.6100696\PG=C01 [X(C3H7N1O2)]\NImag=0\\0.
 57172439,-0.01108050,0.56876853,-0.03553647,-0.01320694,0.46058218,-0.
 08088247,-0.00519701,-0.02875347,0.51304160,0.00039142,-0.07564906,-0.
 00715293,0.05584638,0.50115510,-0.01174051,-0.01786038,-0.16030058,-0.
 04154702,-0.07150840,0.48806578,0.00834205,-0.01111302,0.00144883,-0.0
 8208387,0.02614142,0.00524618,0.61291661,-0.00880856,-0.00400120,-0.01
 603096,0.02832605,-0.13540301,-0.00906560,0.17570887,0.82011247,0.0068
 7478,-0.03285307,-0.01825477,0.01020576,-0.01692540,-0.09918270,-0.048
 69526,0.11079003,0.27852760,0.00023521,0.00150557,0.00143482,0.0052914
 8,-0.00453220,0.00076981,-0.25416438,-0.26247118,-0.02350898,0.3179514
 9,0.00401595,-0.00604274,0.00409435,-0.02913174,-0.03608353,-0.0090312
 0,-0.23915742,-0.53636062,-0.05924462,0.33044549,0.58171219,-0.0007517
 7,0.00319214,0.00117551,-0.00706613,-0.01644112,0.02226971,-0.01764198
 ,-0.05394943,-0.08631687,0.01340172,0.06008391,0.04185603,-0.00317417,
 0.00154914,-0.00215777,-0.01853379,0.00228580,0.01051144,-0.22804652,0
 .00605216,0.04459018,-0.08440056,-0.06434753,0.01317300,0.40826691,0.0
 0140376,-0.00126714,-0.00007008,0.02818763,0.00311199,-0.00985300,0.02
 144351,-0.12328667,-0.02086787,-0.06625711,0.00303622,0.01057622,-0.07
 569932,0.53795479,-0.00062932,0.00014078,0.00008956,0.01558091,-0.0026
 6679,0.00644649,0.04739649,-0.01673087,-0.07929879,0.01221460,0.010039
 31,0.02733541,-0.11446952,0.14290333,0.10169537,-0.02369490,0.00051865
 ,-0.00619869,-0.20730964,0.02503595,0.00502187,-0.03096055,0.00830825,
 -0.00109115,0.00241277,-0.00171551,0.00132070,-0.00407774,0.00663540,0
 .00291878,0.48868529,-0.00227475,0.00209118,0.00085739,-0.02230391,-0.
 07074684,0.01452497,0.02784739,-0.00328702,0.00198134,0.00569794,0.000
 71857,-0.00087510,0.00610314,-0.00593290,-0.00365678,0.13728801,0.3289
 3921,-0.04221522,0.00289258,-0.00456958,-0.00946184,0.01748661,-0.0946
 8872,0.00918712,-0.00140473,0.00293328,0.00172193,-0.00039399,-0.00102
 612,0.00211690,-0.00283665,-0.00088010,0.04748288,-0.13510705,0.635313
 99,-0.08889864,-0.07081360,0.06294925,0.00292786,0.00779416,-0.0073852
 1,0.00010295,0.00011101,0.00064474,-0.00007506,0.00022698,0.00004244,-
 0.00012693,0.00022603,0.00019129,0.00176847,0.00068896,0.00016135,0.09
 134404,-0.07105964,-0.17183685,0.10875151,0.00251335,0.00376171,-0.003
 99099,0.00080270,0.00056569,-0.00047303,-0.00004809,0.00076522,0.00033
 328,-0.00009001,-0.00001529,0.00014331,0.00082631,0.00036381,0.0001714
 4,0.07857615,0.18238491,0.06174742,0.10782520,-0.14200190,0.01277477,0
 .02064128,-0.02282847,0.00034096,0.00361331,0.00083290,-0.00048121,-0.
 00105427,0.00006875,0.00045069,-0.00055461,-0.00021054,0.00130153,-0.0
 0042156,0.00241068,-0.06736923,-0.11919019,0.15888193,-0.06864369,0.07
 065412,0.02485928,0.00151473,-0.01019697,-0.00525975,-0.00192176,0.000
 67684,-0.00165282,0.00033430,-0.00078063,0.00020779,0.00064270,0.00018
 312,0.00040384,0.00119949,-0.00033204,0.00034348,0.00374674,-0.0123377
 2,-0.00487449,0.06990264,0.06958630,-0.26921800,-0.07360673,0.00156036
 ,-0.00408807,-0.00152484,-0.00048126,0.00176659,-0.00052203,0.00003603
 ,-0.00009711,-0.00009706,0.00015408,-0.00028505,-0.00000926,-0.0002940
 8,0.00063861,0.00116625,0.00637561,-0.01882920,-0.00658544,-0.07713147
 ,0.28893675,0.02311241,-0.07142331,-0.06856400,0.00911354,-0.03082892,
 -0.01564415,-0.00464800,0.00452887,-0.00486171,0.00008541,-0.00349877,
 0.00053107,0.00149854,-0.00095069,-0.00004315,0.00126543,0.00084738,0.
 00277507,-0.00679790,0.01780910,0.00662557,-0.02452636,0.08069989,0.07
 726272,-0.31374733,0.01547273,-0.01245524,-0.00806498,0.00045380,0.001
 49309,-0.00172276,0.00060493,0.00004900,0.00034590,-0.00027019,-0.0001
 3043,0.00074604,0.00059387,0.00095744,-0.00025887,0.00005818,-0.003285
 53,-0.01091721,0.00080734,-0.00037251,-0.00716525,0.00031411,-0.000035
 93,0.34020645,0.01676182,-0.04836993,0.00053076,-0.00510219,-0.0021497
 6,0.00041355,-0.00090110,-0.00022952,-0.00003367,0.00012546,0.00018659
 ,-0.00015249,0.00021690,-0.00015034,-0.00025348,0.00002121,0.00061446,
 -0.00085253,-0.02273841,0.00176411,-0.00216059,0.02911814,0.00009451,0
 .00216106,-0.01798636,0.04737414,-0.00828057,-0.00000685,-0.04858151,-
 0.02943231,0.00257085,0.00174795,-0.00133756,-0.00024474,0.00075100,0.
 00025914,-0.00000065,-0.00021475,0.00021862,-0.00000355,-0.00017362,-0
 .00284064,-0.00050062,-0.00699149,0.01959571,-0.00257363,0.00124622,0.
 00969787,0.00056182,-0.00010518,0.01338643,0.00032428,0.05127325,0.004
 38590,0.00797514,-0.00772932,-0.08428766,-0.06518413,0.05660246,0.0043
 2777,0.00342618,-0.00760302,0.00083199,0.00247027,0.00218028,-0.000941
 58,0.00130219,0.00112594,-0.02381994,-0.02386767,0.02292809,0.00000255
 ,-0.00047726,-0.00241938,0.00008018,-0.00014496,0.00070794,0.00049136,
 0.00022092,0.00046771,0.10391807,0.00270494,0.00489171,-0.00355860,-0.
 06882742,-0.18154233,0.10951346,-0.01272025,-0.02384151,0.02065891,0.0
 0160861,-0.00558340,-0.00483709,0.00026359,0.00166639,-0.00138313,0.00
 119933,0.00495215,-0.00358300,-0.00021119,0.00099203,-0.00167942,0.000
 33309,0.00092166,0.00023823,0.00023722,0.00015253,0.00054135,0.0747794
 1,0.19589348,0.00974312,0.02195141,-0.02255520,0.06010032,0.10887153,-
 0.13236696,-0.00270587,-0.00911158,0.00765518,-0.00023869,-0.00245732,
 -0.00227704,-0.00021426,-0.00034636,-0.00040705,0.00026745,-0.00194888
 ,0.00217939,-0.00232344,-0.00138762,-0.00500226,0.00064514,-0.00020214
 ,0.00183850,-0.00014432,-0.00003647,0.00133715,-0.06408044,-0.11473191
 ,0.14772348,0.00000078,0.00009238,-0.00000718,-0.00426707,-0.00376082,
 0.00119811,-0.02479642,0.05118321,0.02004792,0.00818972,-0.00256210,-0
 .00415321,-0.07185518,0.08209359,0.03480075,-0.00121608,0.00119273,0.0
 0046228,0.00005562,-0.00000019,-0.00003817,0.00013665,0.00004065,-0.00
 000418,0.00021432,0.00006625,0.00025782,0.00020882,-0.00023359,-0.0003
 4421,0.09330972,-0.00017292,-0.00001848,-0.00004514,-0.00041730,0.0025
 3330,-0.00005092,0.00879064,0.00214502,-0.00239196,-0.00465453,-0.0032
 3425,0.00183734,0.12522291,-0.41509115,-0.12912919,-0.00017320,0.00050
 091,-0.00024783,0.00003325,0.00000157,0.00005621,-0.00012160,-0.000004
 11,0.00004841,-0.00009238,-0.00004369,-0.00009235,-0.00035908,0.000415
 19,0.00025524,-0.12817739,0.41289247,-0.00051799,0.00078000,0.00005663
 ,0.00232742,0.00153556,0.00451249,0.01003754,-0.01377602,-0.00312817,-
 0.00464687,0.00100822,-0.00372897,0.04481893,-0.11795323,-0.05468041,0
 .00063319,-0.00081417,-0.00002791,0.00005150,-0.00006059,-0.00007993,0
 .00009372,0.00008432,0.00021621,0.00015223,-0.00003326,-0.00000234,-0.
 00057079,-0.00055786,0.00011142,-0.05229161,0.12981045,0.05674361,-0.0
 0716775,0.00085889,0.00136047,-0.01514335,-0.00354106,-0.03821528,-0.0
 0070574,-0.00074237,-0.00125876,0.00107369,0.00040388,0.00020169,0.000
 55262,-0.00029914,-0.00013042,-0.08908029,-0.02158633,-0.09783669,0.00
 013081,0.00022492,0.00013074,0.00021360,-0.00013147,0.00029914,-0.0004
 1536,-0.00032677,-0.00196660,0.00113484,-0.00053185,0.00028394,0.00006
 286,-0.00004893,0.00001550,0.10317664,-0.00130184,0.00044435,-0.000211
 35,0.00751279,-0.00461282,0.00247801,0.00173304,0.00069757,0.00151490,
 -0.00118420,0.00054909,-0.00042395,-0.00089510,0.00036128,0.00019692,-
 0.03881037,-0.02684593,-0.05845371,0.00005612,0.00007985,-0.00026255,0
 .00006427,0.00029009,0.00040883,-0.00041532,0.00063446,-0.00052228,-0.
 00007677,0.00001269,-0.00035900,-0.00005976,0.00005780,-0.00000152,0.0
 2310033,0.02828128,-0.00136326,-0.00020367,0.00103731,0.00376870,-0.00
 305289,0.00110248,0.00042302,-0.00008226,0.00107474,0.00068552,0.00009
 923,-0.00001823,0.00042622,-0.00015818,-0.00036298,-0.11678305,-0.0158
 4230,-0.38577896,0.00019614,-0.00011364,0.00037646,0.00012868,0.000102
 76,0.00008609,0.00015039,-0.00006206,-0.00008193,-0.00020002,-0.000045
 39,0.00043185,0.00002681,0.00003684,-0.00003984,0.11990824,0.02627268,
 0.40315674,0.00152064,-0.00042250,0.00078549,-0.02220284,-0.03073376,0
 .02330482,-0.00128737,-0.00237538,0.00139760,0.00197344,0.00040253,-0.
 00078410,0.00094821,0.00018647,-0.00036079,-0.11364801,-0.10851165,0.0
 6839524,-0.00006120,0.00026213,-0.00119112,-0.00004032,0.00011610,-0.0
 0007005,0.00028768,0.00052415,-0.00002563,-0.00633230,0.00139809,-0.00
 098876,-0.00004376,0.00017053,-0.00010277,0.00616743,0.01027683,-0.007
 36738,0.13271841,-0.00016598,0.00020763,-0.00035126,0.00703299,-0.0002
 8668,-0.00404464,0.00190550,0.00112222,-0.00163353,-0.00027181,0.00043
 377,0.00075335,-0.00081576,-0.00010215,0.00040586,-0.13883994,-0.23200
 620,0.18116262,-0.00032507,0.00000245,-0.00022737,-0.00012914,-0.00012
 668,-0.00004008,0.00022208,0.00012245,-0.00005362,-0.00006425,0.001069
 40,-0.00049689,0.00012502,-0.00015458,-0.00002188,0.00261990,0.0000502
 9,-0.00695112,0.12870647,0.22966809,-0.00044262,-0.00122789,0.00188634
 ,0.00238934,-0.00252937,0.00086667,0.00094852,0.00146397,-0.00073168,-
 0.00169720,0.00035581,0.00034550,-0.00096298,0.00011468,0.00048982,0.0
 6670169,0.14095538,-0.15164953,0.00004336,0.00058104,-0.00031940,-0.00
 006638,-0.00006753,-0.00011704,0.00023538,0.00015489,-0.00020474,-0.00
 140945,-0.00057554,0.00133154,0.00004487,-0.00008708,0.00004720,0.0172
 0802,0.02936305,-0.02098373,-0.08299256,-0.16850142,0.16903904\\0.0000
 0211,-0.00000219,0.00000161,0.00001706,-0.00001690,-0.00000028,-0.0000
 0449,-0.00000367,0.00000840,-0.00000128,0.00000858,-0.00000265,-0.0000
 1461,-0.00000995,-0.00000562,-0.00000982,0.00002396,-0.00000049,0.0000
 0470,-0.00000036,-0.00000073,0.00000411,-0.00000053,-0.00000053,0.0000
 0509,-0.00000260,-0.00000241,-0.00000154,0.00000342,0.00000444,-0.0000
 0383,-0.00000259,-0.00000506,-0.00000343,0.00000026,-0.00000114,0.0000
 0592,0.00000257,0.00000445\\\@


 LOVE IS BLIND, THAT'S WHY ALL THE WORLD LOVES A LOUVER.
 Job cpu time:       0 days  0 hours 18 minutes 37.3 seconds.
 Elapsed time:       0 days  0 hours 18 minutes 42.3 seconds.
 File lengths (MBytes):  RWF=    139 Int=      0 D2E=      0 Chk=     10 Scr=      1
 Normal termination of Gaussian 16 at Mon Aug 18 17:02:51 2025.
