 Entering Gaussian System, Link 0=g16
 Input=glycine_398K.com
 Output=glycine_398K.log
 Initial command:
 /apps/external/apps/gaussian/g16-B.01/g16-haswell/g16/l1.exe "/depot/pearce21/data/madani/Aug13/Gau-874578.inp" -scrdir="/depot/pearce21/data/madani/Aug13/"
 Entering Link 1 = /apps/external/apps/gaussian/g16-B.01/g16-haswell/g16/l1.exe PID=    874581.
  
 Copyright (c) 1988-2017, Gaussian, Inc.  All Rights Reserved.
  
 This is part of the Gaussian(R) 16 program.  It is based on
 the Gaussian(R) 09 system (copyright 2009, Gaussian, Inc.),
 the Gaussian(R) 03 system (copyright 2003, Gaussian, Inc.),
 the Gaussian(R) 98 system (copyright 1998, Gaussian, Inc.),
 the Gaussian(R) 94 system (copyright 1995, Gaussian, Inc.),
 the Gaussian 92(TM) system (copyright 1992, Gaussian, Inc.),
 the Gaussian 90(TM) system (copyright 1990, Gaussian, Inc.),
 the Gaussian 88(TM) system (copyright 1988, Gaussian, Inc.),
 the Gaussian 86(TM) system (copyright 1986, Carnegie Mellon
 University), and the Gaussian 82(TM) system (copyright 1983,
 Carnegie Mellon University). Gaussian is a federally registered
 trademark of Gaussian, Inc.
  
 This software contains proprietary and confidential information,
 including trade secrets, belonging to Gaussian, Inc.
  
 This software is provided under written license and may be
 used, copied, transmitted, or stored only in accord with that
 written license.
  
 The following legend is applicable only to US Government
 contracts under FAR:
  
                    RESTRICTED RIGHTS LEGEND
  
 Use, reproduction and disclosure by the US Government is
 subject to restrictions as set forth in subparagraphs (a)
 and (c) of the Commercial Computer Software - Restricted
 Rights clause in FAR 52.227-19.
  
 Gaussian, Inc.
 340 Quinnipiac St., Bldg. 40, Wallingford CT 06492
  
  
 ---------------------------------------------------------------
 Warning -- This program may not be used in any manner that
 competes with the business of Gaussian, Inc. or will provide
 assistance to any competitor of Gaussian, Inc.  The licensee
 of this program is prohibited from giving any competitor of
 Gaussian, Inc. access to this program.  By using this program,
 the user acknowledges that Gaussian, Inc. is engaged in the
 business of creating and licensing software in the field of
 computational chemistry and represents and warrants to the
 licensee that it is not a competitor of Gaussian, Inc. and that
 it will not use this program in any manner prohibited above.
 ---------------------------------------------------------------
  

 Cite this work as:
 Gaussian 16, Revision B.01,
 M. J. Frisch, G. W. Trucks, H. B. Schlegel, G. E. Scuseria, 
 M. A. Robb, J. R. Cheeseman, G. Scalmani, V. Barone, 
 G. A. Petersson, H. Nakatsuji, X. Li, M. Caricato, A. V. Marenich, 
 J. Bloino, B. G. Janesko, R. Gomperts, B. Mennucci, H. P. Hratchian, 
 J. V. Ortiz, A. F. Izmaylov, J. L. Sonnenberg, D. Williams-Young, 
 F. Ding, F. Lipparini, F. Egidi, J. Goings, B. Peng, A. Petrone, 
 T. Henderson, D. Ranasinghe, V. G. Zakrzewski, J. Gao, N. Rega, 
 G. Zheng, W. Liang, M. Hada, M. Ehara, K. Toyota, R. Fukuda, 
 J. Hasegawa, M. Ishida, T. Nakajima, Y. Honda, O. Kitao, H. Nakai, 
 T. Vreven, K. Throssell, J. A. Montgomery, Jr., J. E. Peralta, 
 F. Ogliaro, M. J. Bearpark, J. J. Heyd, E. N. Brothers, K. N. Kudin, 
 V. N. Staroverov, T. A. Keith, R. Kobayashi, J. Normand, 
 K. Raghavachari, A. P. Rendell, J. C. Burant, S. S. Iyengar, 
 J. Tomasi, M. Cossi, J. M. Millam, M. Klene, C. Adamo, R. Cammi, 
 J. W. Ochterski, R. L. Martin, K. Morokuma, O. Farkas, 
 J. B. Foresman, and D. J. Fox, Gaussian, Inc., Wallingford CT, 2016.
 
 ******************************************
 Gaussian 16:  ES64L-G16RevB.01 20-Dec-2017
                18-Aug-2025 
 ******************************************
 %nprocshared=16
 Will use up to   16 processors via shared memory.
 %mem=32GB
 %Chk=glycine_398K.chk
 --------------------------------------------------------
 # opt b3lyp/6-311++g(2df,2p) scrf=(iefpcm,solvent=water)
 --------------------------------------------------------
 1/18=20,19=15,26=3,38=1/1,3;
 2/9=110,12=2,17=6,18=5,40=1/2;
 3/5=4,6=6,7=1214,11=2,25=1,30=1,70=2201,71=1,72=1,74=-5/1,2,3;
 4//1;
 5/5=2,38=5,53=1/2;
 6/7=2,8=2,9=2,10=2,28=1/1;
 7//1,2,3,16;
 1/18=20,19=15,26=3/3(2);
 2/9=110/2;
 99//99;
 2/9=110/2;
 3/5=4,6=6,7=1214,11=2,25=1,30=1,70=2205,71=1,72=1,74=-5/1,2,3;
 4/5=5,16=3,69=1/1;
 5/5=2,38=5,53=1/2;
 7//1,2,3,16;
 1/18=20,19=15,26=3/3(-5);
 2/9=110/2;
 6/7=2,8=2,9=2,10=2,19=2,28=1/1;
 99/9=1/99;
 --------------------------
 glycine OPT→Freq @ 398 K
 --------------------------
 Symbolic Z-matrix:
 Charge =  0 Multiplicity = 1
 C                     0.95957  -0.12854   0.00583 
 C                     0.43866  -1.30454   0.82236 
 O                    -0.267    -1.24374   1.81847 
 O                     0.83994  -2.49476   0.33278 
 N                     0.50071   1.15516   0.5708 
 H                     0.59274  -0.21626  -1.02079 
 H                     2.05311  -0.14773   0.00957 
 H                     0.44605  -3.16068   0.93535 
 H                    -0.52019   1.13188   0.62172 
 H                     0.79456   1.19358   1.54935 
 

 GradGradGradGradGradGradGradGradGradGradGradGradGradGradGradGradGradGrad
 Berny optimization.
 Initialization pass.
                           ----------------------------
                           !    Initial Parameters    !
                           ! (Angstroms and Degrees)  !
 --------------------------                            --------------------------
 ! Name  Definition              Value          Derivative Info.                !
 --------------------------------------------------------------------------------
 ! R1    R(1,2)                  1.5235         estimate D2E/DX2                !
 ! R2    R(1,5)                  1.4757         estimate D2E/DX2                !
 ! R3    R(1,6)                  1.0937         estimate D2E/DX2                !
 ! R4    R(1,7)                  1.0937         estimate D2E/DX2                !
 ! R5    R(2,3)                  1.2222         estimate D2E/DX2                !
 ! R6    R(2,4)                  1.3481         estimate D2E/DX2                !
 ! R7    R(4,8)                  0.9807         estimate D2E/DX2                !
 ! R8    R(5,9)                  1.0224         estimate D2E/DX2                !
 ! R9    R(5,10)                 1.0224         estimate D2E/DX2                !
 ! A1    A(2,1,5)              111.0986         estimate D2E/DX2                !
 ! A2    A(2,1,6)              109.0559         estimate D2E/DX2                !
 ! A3    A(2,1,7)              109.0556         estimate D2E/DX2                !
 ! A4    A(5,1,6)              108.9563         estimate D2E/DX2                !
 ! A5    A(5,1,7)              108.9566         estimate D2E/DX2                !
 ! A6    A(6,1,7)              109.7032         estimate D2E/DX2                !
 ! A7    A(1,2,3)              126.5699         estimate D2E/DX2                !
 ! A8    A(1,2,4)              112.6497         estimate D2E/DX2                !
 ! A9    A(3,2,4)              120.7805         estimate D2E/DX2                !
 ! A10   A(2,4,8)              104.8817         estimate D2E/DX2                !
 ! A11   A(1,5,9)              108.0437         estimate D2E/DX2                !
 ! A12   A(1,5,10)             108.0436         estimate D2E/DX2                !
 ! A13   A(9,5,10)             103.896          estimate D2E/DX2                !
 ! D1    D(5,1,2,3)              0.0001         estimate D2E/DX2                !
 ! D2    D(5,1,2,4)            179.9999         estimate D2E/DX2                !
 ! D3    D(6,1,2,3)           -120.1092         estimate D2E/DX2                !
 ! D4    D(6,1,2,4)             59.8906         estimate D2E/DX2                !
 ! D5    D(7,1,2,3)            120.1097         estimate D2E/DX2                !
 ! D6    D(7,1,2,4)            -59.8904         estimate D2E/DX2                !
 ! D7    D(2,1,5,9)            -55.9125         estimate D2E/DX2                !
 ! D8    D(2,1,5,10)            55.9121         estimate D2E/DX2                !
 ! D9    D(6,1,5,9)             64.256          estimate D2E/DX2                !
 ! D10   D(6,1,5,10)           176.0806         estimate D2E/DX2                !
 ! D11   D(7,1,5,9)           -176.0809         estimate D2E/DX2                !
 ! D12   D(7,1,5,10)           -64.2562         estimate D2E/DX2                !
 ! D13   D(1,2,4,8)           -180.0            estimate D2E/DX2                !
 ! D14   D(3,2,4,8)             -0.0001         estimate D2E/DX2                !
 --------------------------------------------------------------------------------
 Trust Radius=3.00D-01 FncErr=1.00D-07 GrdErr=1.00D-06 EigMax=2.50D+02 EigMin=1.00D-04
 Number of steps in this run=     46 maximum allowed number of steps=    100.
 GradGradGradGradGradGradGradGradGradGradGradGradGradGradGradGradGradGrad

                          Input orientation:                          
 ---------------------------------------------------------------------
 Center     Atomic      Atomic             Coordinates (Angstroms)
 Number     Number       Type             X           Y           Z
 ---------------------------------------------------------------------
      1          6           0        0.959570   -0.128540    0.005830
      2          6           0        0.438660   -1.304540    0.822360
      3          8           0       -0.267000   -1.243740    1.818470
      4          8           0        0.839940   -2.494760    0.332780
      5          7           0        0.500710    1.155160    0.570800
      6          1           0        0.592740   -0.216260   -1.020790
      7          1           0        2.053110   -0.147730    0.009570
      8          1           0        0.446050   -3.160680    0.935350
      9          1           0       -0.520190    1.131880    0.621720
     10          1           0        0.794560    1.193580    1.549350
 ---------------------------------------------------------------------
                    Distance matrix (angstroms):
                    1          2          3          4          5
     1  C    0.000000
     2  C    1.523497   0.000000
     3  O    2.456381   1.222247   0.000000
     4  O    2.391695   1.348087   2.235541   0.000000
     5  N    1.475679   2.473309   2.810833   3.673370   0.000000
     6  H    1.093713   2.145995   3.139469   2.661733   2.102955
     7  H    1.093715   2.145993   3.139469   2.661728   2.102962
     8  H    3.212722   1.859591   2.227779   0.980658   4.331554
     9  H    2.039036   2.625984   2.672057   3.884065   1.022434
    10  H    2.039040   2.625982   2.672052   3.884064   1.022440
                    6          7          8          9         10
     6  H    0.000000
     7  H    1.788580   0.000000
     8  H    3.538024   3.538019   0.000000
     9  H    2.398736   2.938367   4.411129   0.000000
    10  H    2.938367   2.398746   4.411126   1.610240   0.000000
 Stoichiometry    C2H5NO2
 Framework group  C1[X(C2H5NO2)]
 Deg. of freedom    24
 Full point group                 C1      NOp   1
 Largest Abelian subgroup         C1      NOp   1
 Largest concise Abelian subgroup C1      NOp   1
                         Standard orientation:                         
 ---------------------------------------------------------------------
 Center     Atomic      Atomic             Coordinates (Angstroms)
 Number     Number       Type             X           Y           Z
 ---------------------------------------------------------------------
      1          6           0        0.728244   -0.783534    0.000000
      2          6           0       -0.523067    0.085526    0.000001
      3          8           0       -0.561227    1.307177   -0.000001
      4          8           0       -1.659151   -0.640181   -0.000000
      5          7           0        1.949897    0.044230    0.000000
      6          1           0        0.725707   -1.413174   -0.894290
      7          1           0        0.725700   -1.413177    0.894290
      8          1           0       -2.381605    0.022955   -0.000000
      9          1           0        1.906445    0.672932   -0.805119
     10          1           0        1.906441    0.672939    0.805121
 ---------------------------------------------------------------------
 Rotational constants (GHZ):          10.2728247           3.9215068           2.9342890
 Standard basis: 6-311++G(2df,2p) (5D, 7F)
 There are   245 symmetry adapted cartesian basis functions of A   symmetry.
 There are   220 symmetry adapted basis functions of A   symmetry.
   220 basis functions,   320 primitive gaussians,   245 cartesian basis functions
    20 alpha electrons       20 beta electrons
       nuclear repulsion energy       178.9215216751 Hartrees.
 NAtoms=   10 NActive=   10 NUniq=   10 SFac= 1.00D+00 NAtFMM=   60 NAOKFM=F Big=F
 Integral buffers will be    131072 words long.
 Raffenetti 2 integral format.
 Two-electron integral symmetry is turned on.
 ------------------------------------------------------------------------------
 Polarizable Continuum Model (PCM)
 =================================
 Model                : PCM.
 Atomic radii         : UFF (Universal Force Field).
 Polarization charges : Total charges.
 Charge compensation  : None.
 Solution method      : On-the-fly selection.
 Cavity type          : Scaled VdW (van der Waals Surface) (Alpha=1.100).
 Cavity algorithm     : GePol (No added spheres)
                        Default sphere list used, NSphG=   10.
                        Lebedev-Laikov grids with approx.  5.0 points / Ang**2.
                        Smoothing algorithm: York/Karplus (Gamma=1.0000).
                        Polarization charges: spherical gaussians, with
                                              point-specific exponents (IZeta= 3).
                        Self-potential: point-specific (ISelfS= 7).
                        Self-field    : sphere-specific E.n sum rule (ISelfD= 2).
 1st derivatives      : Analytical E(r).r(x)/FMM algorithm (CHGder, D1EAlg=3).
                        Cavity 1st derivative terms included.
 Solvent              : Water, Eps=  78.355300 Eps(inf)=   1.777849
 ------------------------------------------------------------------------------
 Spheres list:
 ISph  on   Nord     Re0    Alpha      Xe            Ye            Ze
    1   C      1    1.9255  1.100      0.728244     -0.783534      0.000000
    2   C      2    1.9255  1.100     -0.523067      0.085526      0.000001
    3   O      3    1.7500  1.100     -0.561227      1.307177     -0.000001
    4   O      4    1.7500  1.100     -1.659151     -0.640181     -0.000000
    5   N      5    1.8300  1.100      1.949897      0.044230      0.000000
    6   H      6    1.4430  1.100      0.725707     -1.413174     -0.894290
    7   H      7    1.4430  1.100      0.725700     -1.413177      0.894290
    8   H      8    1.4430  1.100     -2.381605      0.022955     -0.000000
    9   H      9    1.4430  1.100      1.906445      0.672932     -0.805119
   10   H     10    1.4430  1.100      1.906441      0.672939      0.805121
 ------------------------------------------------------------------------------
 One-electron integrals computed using PRISM.
 NBasis=   220 RedAO= T EigKep=  5.23D-05  NBF=   220
 NBsUse=   220 1.00D-06 EigRej= -1.00D+00 NBFU=   220
 ExpMin= 3.60D-02 ExpMax= 8.59D+03 ExpMxC= 1.30D+03 IAcc=3 IRadAn=         5 AccDes= 0.00D+00
 Harris functional with IExCor=  402 and IRadAn=       5 diagonalized for initial guess.
 HarFok:  IExCor=  402 AccDes= 0.00D+00 IRadAn=         5 IDoV= 1 UseB2=F ITyADJ=14
 ICtDFT=  3500011 ScaDFX=  1.000000  1.000000  1.000000  1.000000
 FoFCou: FMM=F IPFlag=           0 FMFlag=      100000 FMFlg1=           0
         NFxFlg=           0 DoJE=T BraDBF=F KetDBF=T FulRan=T
         wScrn=  0.000000 ICntrl=       500 IOpCl=  0 I1Cent=   200000004 NGrid=           0
         NMat0=    1 NMatS0=      1 NMatT0=    0 NMatD0=    1 NMtDS0=    0 NMtDT0=    0
 Petite list used in FoFCou.
 Keep R1 ints in memory in canonical form, NReq=312713623.
 Requested convergence on RMS density matrix=1.00D-08 within 128 cycles.
 Requested convergence on MAX density matrix=1.00D-06.
 Requested convergence on             energy=1.00D-06.
 No special actions if energy rises.
 Inv3:  Mode=1 IEnd=     2667747.
 Iteration    1 A*A^-1 deviation from unit magnitude is 2.89D-15 for    607.
 Iteration    1 A*A^-1 deviation from orthogonality  is 1.17D-15 for    458    183.
 Iteration    1 A^-1*A deviation from unit magnitude is 3.11D-15 for    754.
 Iteration    1 A^-1*A deviation from orthogonality  is 1.33D-15 for    804    237.
 Error on total polarization charges =  0.01076
 SCF Done:  E(RB3LYP) =  -284.552460294     A.U. after   12 cycles
            NFock= 12  Conv=0.29D-08     -V/T= 2.0042

 **********************************************************************

            Population analysis using the SCF Density.

 **********************************************************************

 Orbital symmetries:
       Occupied  (A) (A) (A) (A) (A) (A) (A) (A) (A) (A) (A) (A)
                 (A) (A) (A) (A) (A) (A) (A) (A)
       Virtual   (A) (A) (A) (A) (A) (A) (A) (A) (A) (A) (A) (A)
                 (A) (A) (A) (A) (A) (A) (A) (A) (A) (A) (A) (A)
                 (A) (A) (A) (A) (A) (A) (A) (A) (A) (A) (A) (A)
                 (A) (A) (A) (A) (A) (A) (A) (A) (A) (A) (A) (A)
                 (A) (A) (A) (A) (A) (A) (A) (A) (A) (A) (A) (A)
                 (A) (A) (A) (A) (A) (A) (A) (A) (A) (A) (A) (A)
                 (A) (A) (A) (A) (A) (A) (A) (A) (A) (A) (A) (A)
                 (A) (A) (A) (A) (A) (A) (A) (A) (A) (A) (A) (A)
                 (A) (A) (A) (A) (A) (A) (A) (A) (A) (A) (A) (A)
                 (A) (A) (A) (A) (A) (A) (A) (A) (A) (A) (A) (A)
                 (A) (A) (A) (A) (A) (A) (A) (A) (A) (A) (A) (A)
                 (A) (A) (A) (A) (A) (A) (A) (A) (A) (A) (A) (A)
                 (A) (A) (A) (A) (A) (A) (A) (A) (A) (A) (A) (A)
                 (A) (A) (A) (A) (A) (A) (A) (A) (A) (A) (A) (A)
                 (A) (A) (A) (A) (A) (A) (A) (A) (A) (A) (A) (A)
                 (A) (A) (A) (A) (A) (A) (A) (A) (A) (A) (A) (A)
                 (A) (A) (A) (A) (A) (A) (A) (A)
 The electronic state is 1-A.
 Alpha  occ. eigenvalues --  -19.18478 -19.13183 -14.30841 -10.31916 -10.22076
 Alpha  occ. eigenvalues --   -1.12385  -1.03005  -0.89700  -0.72867  -0.61132
 Alpha  occ. eigenvalues --   -0.51810  -0.51383  -0.50542  -0.45636  -0.43373
 Alpha  occ. eigenvalues --   -0.41715  -0.38851  -0.34198  -0.30453  -0.27224
 Alpha virt. eigenvalues --   -0.01912  -0.01115   0.00648   0.02316   0.02675
 Alpha virt. eigenvalues --    0.06023   0.06289   0.07124   0.07496   0.08147
 Alpha virt. eigenvalues --    0.10342   0.11551   0.12681   0.13833   0.14014
 Alpha virt. eigenvalues --    0.14733   0.17145   0.18526   0.19310   0.19566
 Alpha virt. eigenvalues --    0.20518   0.20705   0.22340   0.22341   0.23556
 Alpha virt. eigenvalues --    0.26237   0.27202   0.27820   0.28955   0.31723
 Alpha virt. eigenvalues --    0.32143   0.32826   0.33615   0.37011   0.45275
 Alpha virt. eigenvalues --    0.45614   0.47020   0.51316   0.52154   0.53426
 Alpha virt. eigenvalues --    0.55087   0.56345   0.59213   0.59959   0.61065
 Alpha virt. eigenvalues --    0.63280   0.64768   0.67028   0.68214   0.72179
 Alpha virt. eigenvalues --    0.74173   0.78595   0.80069   0.80610   0.85138
 Alpha virt. eigenvalues --    0.87287   0.90153   0.95568   0.96752   0.98900
 Alpha virt. eigenvalues --    1.00210   1.00467   1.05290   1.07024   1.10228
 Alpha virt. eigenvalues --    1.10956   1.14251   1.16138   1.19529   1.20466
 Alpha virt. eigenvalues --    1.22153   1.24416   1.26607   1.29639   1.31164
 Alpha virt. eigenvalues --    1.33511   1.34420   1.41222   1.41843   1.48695
 Alpha virt. eigenvalues --    1.50764   1.52557   1.57940   1.58508   1.63046
 Alpha virt. eigenvalues --    1.63828   1.67055   1.72906   1.73257   1.74681
 Alpha virt. eigenvalues --    1.83178   1.85946   1.87190   2.01134   2.06707
 Alpha virt. eigenvalues --    2.10138   2.27757   2.30100   2.43182   2.45620
 Alpha virt. eigenvalues --    2.55682   2.60925   2.67593   2.71130   2.75603
 Alpha virt. eigenvalues --    2.76634   2.80339   2.83954   2.95896   2.99369
 Alpha virt. eigenvalues --    3.02836   3.05926   3.06448   3.13378   3.17209
 Alpha virt. eigenvalues --    3.21722   3.25207   3.28299   3.33744   3.36358
 Alpha virt. eigenvalues --    3.37915   3.39257   3.44003   3.46692   3.48983
 Alpha virt. eigenvalues --    3.52282   3.55638   3.58059   3.62231   3.67069
 Alpha virt. eigenvalues --    3.69864   3.70660   3.76703   3.78671   3.84608
 Alpha virt. eigenvalues --    3.91161   3.93062   3.93633   4.00797   4.02677
 Alpha virt. eigenvalues --    4.07923   4.12245   4.16869   4.19678   4.20285
 Alpha virt. eigenvalues --    4.30415   4.40520   4.41522   4.54268   4.59998
 Alpha virt. eigenvalues --    4.67914   4.69140   4.75416   4.80055   4.88477
 Alpha virt. eigenvalues --    4.98572   5.03106   5.06921   5.07132   5.07408
 Alpha virt. eigenvalues --    5.11649   5.12899   5.15982   5.21525   5.24562
 Alpha virt. eigenvalues --    5.28904   5.33371   5.37156   5.41148   5.46262
 Alpha virt. eigenvalues --    5.48093   5.55379   5.56232   5.68115   5.71306
 Alpha virt. eigenvalues --    5.79625   5.87613   5.90469   6.14106   6.27522
 Alpha virt. eigenvalues --    6.44826   6.51091   6.78631   6.86703   6.90711
 Alpha virt. eigenvalues --    6.90906   6.97431   7.13067   7.16013   7.20495
 Alpha virt. eigenvalues --    7.25141   7.52739   7.59116   7.67520   7.71976
 Alpha virt. eigenvalues --   24.32709  24.69783  35.69682  49.98739  50.13306
          Condensed to atoms (all electrons):
               1          2          3          4          5          6
     1  C    5.234708   0.174673  -0.064362  -0.130775   0.183067   0.425649
     2  C    0.174673   5.007628   0.377308   0.309417  -0.047812  -0.054159
     3  O   -0.064362   0.377308   8.220708  -0.085373  -0.011572   0.001483
     4  O   -0.130775   0.309417  -0.085373   7.914548   0.003624   0.000821
     5  N    0.183067  -0.047812  -0.011572   0.003624   6.688346  -0.045959
     6  H    0.425649  -0.054159   0.001483   0.000821  -0.045959   0.548988
     7  H    0.425649  -0.054160   0.001483   0.000821  -0.045958  -0.029864
     8  H   -0.018011  -0.013895   0.019552   0.273915   0.000857   0.000139
     9  H   -0.024639  -0.007327   0.008523  -0.000491   0.342453  -0.006678
    10  H   -0.024639  -0.007327   0.008523  -0.000491   0.342452   0.007949
               7          8          9         10
     1  C    0.425649  -0.018011  -0.024639  -0.024639
     2  C   -0.054160  -0.013895  -0.007327  -0.007327
     3  O    0.001483   0.019552   0.008523   0.008523
     4  O    0.000821   0.273915  -0.000491  -0.000491
     5  N   -0.045958   0.000857   0.342453   0.342452
     6  H   -0.029864   0.000139  -0.006678   0.007949
     7  H    0.548989   0.000139   0.007949  -0.006678
     8  H    0.000139   0.416791  -0.000108  -0.000108
     9  H    0.007949  -0.000108   0.500275  -0.026689
    10  H   -0.006678  -0.000108  -0.026689   0.500276
 Mulliken charges:
               1
     1  C   -0.181320
     2  C    0.315654
     3  O   -0.476273
     4  O   -0.286017
     5  N   -0.409498
     6  H    0.151631
     7  H    0.151630
     8  H    0.320729
     9  H    0.206733
    10  H    0.206732
 Sum of Mulliken charges =  -0.00000
 Mulliken charges with hydrogens summed into heavy atoms:
               1
     1  C    0.121941
     2  C    0.315654
     3  O   -0.476273
     4  O    0.034712
     5  N    0.003967
 Electronic spatial extent (au):  <R**2>=            420.7703
 Charge=             -0.0000 electrons
 Dipole moment (field-independent basis, Debye):
    X=             -1.4967    Y=             -1.0445    Z=             -0.0000  Tot=              1.8251
 Quadrupole moment (field-independent basis, Debye-Ang):
   XX=            -31.5180   YY=            -34.0081   ZZ=            -27.4982
   XY=              1.5192   XZ=             -0.0000   YZ=              0.0000
 Traceless Quadrupole moment (field-independent basis, Debye-Ang):
   XX=             -0.5099   YY=             -3.0000   ZZ=              3.5099
   XY=              1.5192   XZ=             -0.0000   YZ=              0.0000
 Octapole moment (field-independent basis, Debye-Ang**2):
  XXX=            -43.7865  YYY=             -5.0307  ZZZ=             -0.0000  XYY=              5.1570
  XXY=             12.1131  XXZ=             -0.0001  XZZ=              1.4879  YZZ=              0.5577
  YYZ=              0.0000  XYZ=              0.0000
 Hexadecapole moment (field-independent basis, Debye-Ang**3):
 XXXX=           -356.9487 YYYY=           -151.4617 ZZZZ=            -36.2678 XXXY=             14.2016
 XXXZ=             -0.0002 YYYX=              5.3543 YYYZ=              0.0000 ZZZX=             -0.0000
 ZZZY=              0.0000 XXYY=            -84.4817 XXZZ=            -59.0530 YYZZ=            -27.4626
 XXYZ=              0.0000 YYXZ=             -0.0000 ZZXY=              2.1546
 N-N= 1.789215216751D+02 E-N=-1.025394301459D+03  KE= 2.833674465171D+02
 D1PCM: PCM CHGder 1st derivatives, ID1Alg=3 FixD1E=F DoIter=F DoCFld=F I1PDM=0.
 Calling FoFJK, ICntrl=      2127 FMM=F ISym2X=0 I1Cent= 0 IOpClX= 0 NMat=1 NMatS=1 NMatT=0.
 ***** Axes restored to original set *****
 -------------------------------------------------------------------
 Center     Atomic                   Forces (Hartrees/Bohr)
 Number     Number              X              Y              Z
 -------------------------------------------------------------------
      1        6          -0.010937114    0.012058944    0.014700983
      2        6          -0.006476752   -0.009504877    0.009810644
      3        8           0.012215475    0.004736411   -0.017628066
      4        8          -0.005843689   -0.001949049    0.008412438
      5        7          -0.001286022   -0.006628850    0.002270916
      6        1           0.003993486   -0.002386458    0.002044365
      7        1          -0.003106228   -0.002718765   -0.002963958
      8        1           0.005762171    0.002278737   -0.008318549
      9        1           0.006059961    0.002208087   -0.001890302
     10        1          -0.000381287    0.001905819   -0.006438472
 -------------------------------------------------------------------
 Cartesian Forces:  Max     0.017628066 RMS     0.007305732

 GradGradGradGradGradGradGradGradGradGradGradGradGradGradGradGradGradGrad
 Berny optimization.
 FormGI is forming the generalized inverse of G from B-inverse, IUseBI=4.
 Internal  Forces:  Max     0.021182312 RMS     0.005922513
 Search for a local minimum.
 Step number   1 out of a maximum of   46
 All quantities printed in internal units (Hartrees-Bohrs-Radians)
 Mixed Optimization -- RFO/linear search
 Second derivative matrix not updated -- first step.
 ITU=  0
     Eigenvalues ---    0.00455   0.00691   0.00889   0.02378   0.04826
     Eigenvalues ---    0.05150   0.06533   0.09628   0.13068   0.16000
     Eigenvalues ---    0.16000   0.16000   0.22070   0.25000   0.25000
     Eigenvalues ---    0.30032   0.34387   0.34387   0.35069   0.43951
     Eigenvalues ---    0.43952   0.51257   0.55430   0.94395
 RFO step:  Lambda=-4.59335872D-03 EMin= 4.55121358D-03
 Linear search not attempted -- first point.
 Iteration  1 RMS(Cart)=  0.06771756 RMS(Int)=  0.00230746
 Iteration  2 RMS(Cart)=  0.00295053 RMS(Int)=  0.00054973
 Iteration  3 RMS(Cart)=  0.00000353 RMS(Int)=  0.00054972
 Iteration  4 RMS(Cart)=  0.00000000 RMS(Int)=  0.00054972
 Variable       Old X    -DE/DX   Delta X   Delta X   Delta X     New X
                                 (Linear)    (Quad)   (Total)
    R1        2.87899  -0.00264   0.00000  -0.00867  -0.00867   2.87032
    R2        2.78863  -0.00587   0.00000  -0.01654  -0.01654   2.77209
    R3        2.06682  -0.00307   0.00000  -0.00880  -0.00880   2.05802
    R4        2.06682  -0.00307   0.00000  -0.00880  -0.00880   2.05802
    R5        2.30971  -0.02118   0.00000  -0.02233  -0.02233   2.28738
    R6        2.54751  -0.00035   0.00000  -0.00063  -0.00063   2.54688
    R7        1.85317  -0.00897   0.00000  -0.01735  -0.01735   1.83583
    R8        1.93212  -0.00620   0.00000  -0.01395  -0.01395   1.91817
    R9        1.93213  -0.00620   0.00000  -0.01396  -0.01396   1.91817
    A1        1.93904   0.01578   0.00000   0.08141   0.08071   2.01975
    A2        1.90339  -0.00553   0.00000  -0.02740  -0.02881   1.87457
    A3        1.90338  -0.00553   0.00000  -0.02740  -0.02881   1.87457
    A4        1.90165  -0.00209   0.00000   0.00750   0.00750   1.90915
    A5        1.90165  -0.00209   0.00000   0.00749   0.00749   1.90915
    A6        1.91468  -0.00061   0.00000  -0.04280  -0.04377   1.87091
    A7        2.20906  -0.00569   0.00000  -0.02235  -0.02235   2.18671
    A8        1.96611  -0.00202   0.00000  -0.00794  -0.00794   1.95816
    A9        2.10802   0.00771   0.00000   0.03030   0.03030   2.13832
   A10        1.83053   0.00964   0.00000   0.05855   0.05855   1.88908
   A11        1.88572   0.00257   0.00000   0.02482   0.02437   1.91009
   A12        1.88572   0.00257   0.00000   0.02482   0.02437   1.91009
   A13        1.81333   0.00017   0.00000   0.02309   0.02212   1.83545
    D1        0.00000   0.00000   0.00000  -0.00001  -0.00001  -0.00000
    D2        3.14159   0.00000   0.00000   0.00001   0.00001  -3.14159
    D3       -2.09630  -0.00367   0.00000  -0.04231  -0.04155  -2.13785
    D4        1.04529  -0.00367   0.00000  -0.04230  -0.04153   1.00376
    D5        2.09631   0.00367   0.00000   0.04230   0.04153   2.13784
    D6       -1.04529   0.00367   0.00000   0.04231   0.04154  -1.00374
    D7       -0.97586  -0.00134   0.00000  -0.02530  -0.02557  -1.00142
    D8        0.97585   0.00134   0.00000   0.02530   0.02557   1.00142
    D9        1.12148   0.00027   0.00000  -0.00380  -0.00349   1.11799
   D10        3.07319   0.00294   0.00000   0.04679   0.04765   3.12083
   D11       -3.07319  -0.00294   0.00000  -0.04679  -0.04765  -3.12084
   D12       -1.12148  -0.00027   0.00000   0.00380   0.00349  -1.11800
   D13       -3.14159  -0.00000   0.00000  -0.00001  -0.00001   3.14159
   D14       -0.00000   0.00000   0.00000   0.00001   0.00001   0.00000
         Item               Value     Threshold  Converged?
 Maximum Force            0.021182     0.000450     NO 
 RMS     Force            0.005923     0.000300     NO 
 Maximum Displacement     0.170582     0.001800     NO 
 RMS     Displacement     0.066548     0.001200     NO 
 Predicted change in Energy=-2.367628D-03
 GradGradGradGradGradGradGradGradGradGradGradGradGradGradGradGradGradGrad

                          Input orientation:                          
 ---------------------------------------------------------------------
 Center     Atomic      Atomic             Coordinates (Angstroms)
 Number     Number       Type             X           Y           Z
 ---------------------------------------------------------------------
      1          6           0        0.925918   -0.133770    0.053873
      2          6           0        0.425463   -1.331337    0.842837
      3          8           0       -0.273351   -1.276108    1.829624
      4          8           0        0.849359   -2.498848    0.319705
      5          7           0        0.509135    1.179544    0.557242
      6          1           0        0.582197   -0.253198   -0.972594
      7          1           0        2.013593   -0.186026    0.037328
      8          1           0        0.498249   -3.221805    0.865439
      9          1           0       -0.504443    1.222070    0.591572
     10          1           0        0.812031    1.283848    1.520415
 ---------------------------------------------------------------------
                    Distance matrix (angstroms):
                    1          2          3          4          5
     1  C    0.000000
     2  C    1.518909   0.000000
     3  O    2.428265   1.210430   0.000000
     4  O    2.381202   1.347753   2.243976   0.000000
     5  N    1.466929   2.528456   2.874277   3.701722   0.000000
     6  H    1.089056   2.117248   3.103342   2.604680   2.097257
     7  H    1.089056   2.117248   3.103340   2.604673   2.097257
     8  H    3.221413   1.892003   2.304507   0.971479   4.412139
     9  H    2.042879   2.729056   2.797690   3.968869   1.015050
    10  H    2.042879   2.729055   2.797685   3.968865   1.015051
                    6          7          8          9         10
     6  H    0.000000
     7  H    1.753098   0.000000
     8  H    3.492569   3.492562   0.000000
     9  H    2.409111   2.937759   4.563816   0.000000
    10  H    2.937760   2.409114   4.563810   1.612349   0.000000
 Stoichiometry    C2H5NO2
 Framework group  C1[X(C2H5NO2)]
 Deg. of freedom    24
 Full point group                 C1      NOp   1
 Largest Abelian subgroup         C1      NOp   1
 Largest concise Abelian subgroup C1      NOp   1
                         Standard orientation:                         
 ---------------------------------------------------------------------
 Center     Atomic      Atomic             Coordinates (Angstroms)
 Number     Number       Type             X           Y           Z
 ---------------------------------------------------------------------
      1          6           0        0.721217   -0.736629   -0.000001
      2          6           0       -0.543849    0.104022   -0.000004
      3          8           0       -0.579431    1.313929   -0.000000
      4          8           0       -1.658535   -0.653547    0.000002
      5          7           0        1.982920    0.011692    0.000002
      6          1           0        0.683603   -1.381834   -0.876550
      7          1           0        0.683598   -1.381835    0.876547
      8          1           0       -2.428615   -0.061307    0.000005
      9          1           0        2.010253    0.627858   -0.806174
     10          1           0        2.010247    0.627862    0.806176
 ---------------------------------------------------------------------
 Rotational constants (GHZ):          10.4080970           3.8285737           2.8905093
 Standard basis: 6-311++G(2df,2p) (5D, 7F)
 There are   245 symmetry adapted cartesian basis functions of A   symmetry.
 There are   220 symmetry adapted basis functions of A   symmetry.
   220 basis functions,   320 primitive gaussians,   245 cartesian basis functions
    20 alpha electrons       20 beta electrons
       nuclear repulsion energy       178.7476997915 Hartrees.
 NAtoms=   10 NActive=   10 NUniq=   10 SFac= 1.00D+00 NAtFMM=   60 NAOKFM=F Big=F
 Integral buffers will be    131072 words long.
 Raffenetti 2 integral format.
 Two-electron integral symmetry is turned on.
 ------------------------------------------------------------------------------
 Polarizable Continuum Model (PCM)
 =================================
 Model                : PCM.
 Atomic radii         : UFF (Universal Force Field).
 Polarization charges : Total charges.
 Charge compensation  : None.
 Solution method      : On-the-fly selection.
 Cavity type          : Scaled VdW (van der Waals Surface) (Alpha=1.100).
 Cavity algorithm     : GePol (No added spheres)
                        Default sphere list used, NSphG=   10.
                        Lebedev-Laikov grids with approx.  5.0 points / Ang**2.
                        Smoothing algorithm: York/Karplus (Gamma=1.0000).
                        Polarization charges: spherical gaussians, with
                                              point-specific exponents (IZeta= 3).
                        Self-potential: point-specific (ISelfS= 7).
                        Self-field    : sphere-specific E.n sum rule (ISelfD= 2).
 1st derivatives      : Analytical E(r).r(x)/FMM algorithm (CHGder, D1EAlg=3).
                        Cavity 1st derivative terms included.
 Solvent              : Water, Eps=  78.355300 Eps(inf)=   1.777849
 ------------------------------------------------------------------------------
 Spheres list:
 ISph  on   Nord     Re0    Alpha      Xe            Ye            Ze
    1   C      1    1.9255  1.100      0.721217     -0.736629     -0.000001
    2   C      2    1.9255  1.100     -0.543849      0.104022     -0.000004
    3   O      3    1.7500  1.100     -0.579431      1.313929     -0.000000
    4   O      4    1.7500  1.100     -1.658535     -0.653547      0.000002
    5   N      5    1.8300  1.100      1.982920      0.011692      0.000002
    6   H      6    1.4430  1.100      0.683603     -1.381834     -0.876550
    7   H      7    1.4430  1.100      0.683598     -1.381835      0.876547
    8   H      8    1.4430  1.100     -2.428615     -0.061307      0.000005
    9   H      9    1.4430  1.100      2.010253      0.627858     -0.806174
   10   H     10    1.4430  1.100      2.010247      0.627862      0.806176
 ------------------------------------------------------------------------------
 One-electron integrals computed using PRISM.
 NBasis=   220 RedAO= T EigKep=  5.35D-05  NBF=   220
 NBsUse=   220 1.00D-06 EigRej= -1.00D+00 NBFU=   220
 Initial guess from the checkpoint file:  "glycine_398K.chk"
 B after Tr=     0.000000    0.000000   -0.000000
         Rot=    1.000000   -0.000000   -0.000000    0.000895 Ang=  -0.10 deg.
 ExpMin= 3.60D-02 ExpMax= 8.59D+03 ExpMxC= 1.30D+03 IAcc=3 IRadAn=         5 AccDes= 0.00D+00
 Harris functional with IExCor=  402 and IRadAn=       5 diagonalized for initial guess.
 HarFok:  IExCor=  402 AccDes= 0.00D+00 IRadAn=         5 IDoV= 1 UseB2=F ITyADJ=14
 ICtDFT=  3500011 ScaDFX=  1.000000  1.000000  1.000000  1.000000
 FoFCou: FMM=F IPFlag=           0 FMFlag=      100000 FMFlg1=           0
         NFxFlg=           0 DoJE=T BraDBF=F KetDBF=T FulRan=T
         wScrn=  0.000000 ICntrl=       500 IOpCl=  0 I1Cent=   200000004 NGrid=           0
         NMat0=    1 NMatS0=      1 NMatT0=    0 NMatD0=    1 NMtDS0=    0 NMtDT0=    0
 Petite list used in FoFCou.
 Keep R1 ints in memory in canonical form, NReq=312713623.
 Requested convergence on RMS density matrix=1.00D-08 within 128 cycles.
 Requested convergence on MAX density matrix=1.00D-06.
 Requested convergence on             energy=1.00D-06.
 No special actions if energy rises.
 Inv3:  Mode=1 IEnd=     2718912.
 Iteration    1 A*A^-1 deviation from unit magnitude is 2.89D-15 for    118.
 Iteration    1 A*A^-1 deviation from orthogonality  is 1.21D-15 for    682     13.
 Iteration    1 A^-1*A deviation from unit magnitude is 2.89D-15 for    118.
 Iteration    1 A^-1*A deviation from orthogonality  is 1.63D-15 for    935    112.
 Error on total polarization charges =  0.01081
 SCF Done:  E(RB3LYP) =  -284.555015804     A.U. after   10 cycles
            NFock= 10  Conv=0.51D-08     -V/T= 2.0039
 D1PCM: PCM CHGder 1st derivatives, ID1Alg=3 FixD1E=F DoIter=F DoCFld=F I1PDM=0.
 Calling FoFJK, ICntrl=      2127 FMM=F ISym2X=0 I1Cent= 0 IOpClX= 0 NMat=1 NMatS=1 NMatT=0.
 ***** Axes restored to original set *****
 -------------------------------------------------------------------
 Center     Atomic                   Forces (Hartrees/Bohr)
 Number     Number              X              Y              Z
 -------------------------------------------------------------------
      1        6          -0.003092918    0.006918467    0.003922919
      2        6          -0.003203277   -0.001289080    0.004628442
      3        8           0.002320339    0.000124213   -0.003297896
      4        8          -0.000684893    0.001707011    0.000856436
      5        7           0.000074086   -0.009404799    0.000520605
      6        1           0.001045567   -0.000393134   -0.001479201
      7        1           0.001067494   -0.000392208   -0.001463562
      8        1           0.000861223    0.001247800   -0.001303696
      9        1           0.000775953    0.000739498   -0.001213276
     10        1           0.000836426    0.000742232   -0.001170771
 -------------------------------------------------------------------
 Cartesian Forces:  Max     0.009404799 RMS     0.002777267

 GradGradGradGradGradGradGradGradGradGradGradGradGradGradGradGradGradGrad
 Berny optimization.
 Using GEDIIS/GDIIS optimizer.
 FormGI is forming the generalized inverse of G from B-inverse, IUseBI=4.
 Internal  Forces:  Max     0.008213152 RMS     0.001855574
 Search for a local minimum.
 Step number   2 out of a maximum of   46
 All quantities printed in internal units (Hartrees-Bohrs-Radians)
 Mixed Optimization -- RFO/linear search
 Update second derivatives using D2CorX and points    1    2
 DE= -2.56D-03 DEPred=-2.37D-03 R= 1.08D+00
 TightC=F SS=  1.41D+00  RLast= 1.77D-01 DXNew= 5.0454D-01 5.3038D-01
 Trust test= 1.08D+00 RLast= 1.77D-01 DXMaxT set to 5.05D-01
 ITU=  1  0
 Use linear search instead of GDIIS.
     Eigenvalues ---    0.00455   0.00691   0.00913   0.02378   0.04196
     Eigenvalues ---    0.04535   0.06116   0.10251   0.13542   0.15713
     Eigenvalues ---    0.16000   0.16015   0.22164   0.24449   0.26310
     Eigenvalues ---    0.29959   0.33968   0.34387   0.36397   0.43951
     Eigenvalues ---    0.44060   0.50834   0.55627   0.92111
 RFO step:  Lambda=-4.90400518D-04 EMin= 4.55121358D-03
 Quartic linear search produced a step of  0.14782.
 Iteration  1 RMS(Cart)=  0.01533314 RMS(Int)=  0.00028181
 Iteration  2 RMS(Cart)=  0.00026276 RMS(Int)=  0.00016448
 Iteration  3 RMS(Cart)=  0.00000008 RMS(Int)=  0.00016448
 Variable       Old X    -DE/DX   Delta X   Delta X   Delta X     New X
                                 (Linear)    (Quad)   (Total)
    R1        2.87032  -0.00072  -0.00128  -0.00233  -0.00361   2.86671
    R2        2.77209  -0.00821  -0.00244  -0.02606  -0.02851   2.74359
    R3        2.05802   0.00111  -0.00130   0.00411   0.00281   2.06082
    R4        2.05802   0.00111  -0.00130   0.00411   0.00281   2.06082
    R5        2.28738  -0.00402  -0.00330  -0.00383  -0.00713   2.28025
    R6        2.54688  -0.00233  -0.00009  -0.00480  -0.00489   2.54199
    R7        1.83583  -0.00197  -0.00256  -0.00359  -0.00615   1.82968
    R8        1.91817  -0.00079  -0.00206  -0.00139  -0.00345   1.91472
    R9        1.91817  -0.00079  -0.00206  -0.00139  -0.00345   1.91471
    A1        2.01975  -0.00109   0.01193  -0.00664   0.00514   2.02489
    A2        1.87457   0.00042  -0.00426   0.00417  -0.00034   1.87424
    A3        1.87457   0.00042  -0.00426   0.00417  -0.00034   1.87423
    A4        1.90915   0.00067   0.00111   0.00583   0.00692   1.91607
    A5        1.90915   0.00067   0.00111   0.00583   0.00692   1.91607
    A6        1.87091  -0.00113  -0.00647  -0.01442  -0.02103   1.84988
    A7        2.18671   0.00132  -0.00330   0.00710   0.00380   2.19050
    A8        1.95816  -0.00335  -0.00117  -0.01496  -0.01614   1.94202
    A9        2.13832   0.00203   0.00448   0.00786   0.01234   2.15066
   A10        1.88908   0.00060   0.00866   0.00156   0.01021   1.89929
   A11        1.91009   0.00079   0.00360   0.01132   0.01463   1.92472
   A12        1.91009   0.00079   0.00360   0.01132   0.01463   1.92472
   A13        1.83545   0.00045   0.00327   0.01727   0.01994   1.85539
    D1       -0.00000   0.00000  -0.00000   0.00003   0.00003   0.00002
    D2       -3.14159  -0.00000   0.00000  -0.00003  -0.00003   3.14157
    D3       -2.13785  -0.00045  -0.00614  -0.00626  -0.01228  -2.15013
    D4        1.00376  -0.00045  -0.00614  -0.00633  -0.01234   0.99141
    D5        2.13784   0.00045   0.00614   0.00632   0.01233   2.15018
    D6       -1.00374   0.00045   0.00614   0.00626   0.01227  -0.99147
    D7       -1.00142  -0.00071  -0.00378  -0.01656  -0.02051  -1.02193
    D8        1.00142   0.00071   0.00378   0.01656   0.02050   1.02192
    D9        1.11799  -0.00041  -0.00052  -0.01122  -0.01179   1.10620
   D10        3.12083   0.00101   0.00704   0.02190   0.02922  -3.13314
   D11       -3.12084  -0.00101  -0.00704  -0.02190  -0.02922   3.13313
   D12       -1.11800   0.00041   0.00052   0.01122   0.01179  -1.10620
   D13        3.14159   0.00000  -0.00000   0.00003   0.00003  -3.14157
   D14        0.00000  -0.00000   0.00000  -0.00003  -0.00003  -0.00002
         Item               Value     Threshold  Converged?
 Maximum Force            0.008213     0.000450     NO 
 RMS     Force            0.001856     0.000300     NO 
 Maximum Displacement     0.038400     0.001800     NO 
 RMS     Displacement     0.015316     0.001200     NO 
 Predicted change in Energy=-2.838500D-04
 GradGradGradGradGradGradGradGradGradGradGradGradGradGradGradGradGradGrad

                          Input orientation:                          
 ---------------------------------------------------------------------
 Center     Atomic      Atomic             Coordinates (Angstroms)
 Number     Number       Type             X           Y           Z
 ---------------------------------------------------------------------
      1          6           0        0.917444   -0.135491    0.066008
      2          6           0        0.417560   -1.331455    0.854090
      3          8           0       -0.279069   -1.280846    1.838048
      4          8           0        0.851004   -2.485832    0.316496
      5          7           0        0.508773    1.167680    0.558535
      6          1           0        0.583860   -0.261816   -0.964547
      7          1           0        2.006019   -0.195058    0.038849
      8          1           0        0.512618   -3.223065    0.845119
      9          1           0       -0.502061    1.234050    0.579327
     10          1           0        0.822003    1.296201    1.513517
 ---------------------------------------------------------------------
                    Distance matrix (angstroms):
                    1          2          3          4          5
     1  C    0.000000
     2  C    1.517000   0.000000
     3  O    2.425614   1.206658   0.000000
     4  O    2.364585   1.345165   2.245925   0.000000
     5  N    1.451844   2.518204   2.872826   3.677480   0.000000
     6  H    1.090541   2.116418   3.104449   2.580443   2.090185
     7  H    1.090541   2.116417   3.104461   2.580464   2.090185
     8  H    3.209986   1.894018   2.320537   0.968224   4.400089
     9  H    2.038170   2.739163   2.821136   3.967038   1.013224
    10  H    2.038169   2.739160   2.821143   3.967049   1.013223
                    6          7          8          9         10
     6  H    0.000000
     7  H    1.741780   0.000000
     8  H    3.471161   3.471187   0.000000
     9  H    2.408399   2.936823   4.578875   0.000000
    10  H    2.936823   2.408400   4.578891   1.621641   0.000000
 Stoichiometry    C2H5NO2
 Framework group  C1[X(C2H5NO2)]
 Deg. of freedom    24
 Full point group                 C1      NOp   1
 Largest Abelian subgroup         C1      NOp   1
 Largest concise Abelian subgroup C1      NOp   1
                         Standard orientation:                         
 ---------------------------------------------------------------------
 Center     Atomic      Atomic             Coordinates (Angstroms)
 Number     Number       Type             X           Y           Z
 ---------------------------------------------------------------------
      1          6           0        0.719912   -0.726270    0.000004
      2          6           0       -0.544163    0.112421    0.000018
      3          8           0       -0.585073    1.318386   -0.000001
      4          8           0       -1.643809   -0.662335   -0.000006
      5          7           0        1.971909    0.008817   -0.000006
      6          1           0        0.676424   -1.381204   -0.870887
      7          1           0        0.676440   -1.381207    0.870893
      8          1           0       -2.427001   -0.093065   -0.000019
      9          1           0        2.023665    0.614220   -0.810828
     10          1           0        2.023678    0.614220    0.810813
 ---------------------------------------------------------------------
 Rotational constants (GHZ):          10.3716291           3.8644138           2.9078714
 Standard basis: 6-311++G(2df,2p) (5D, 7F)
 There are   245 symmetry adapted cartesian basis functions of A   symmetry.
 There are   220 symmetry adapted basis functions of A   symmetry.
   220 basis functions,   320 primitive gaussians,   245 cartesian basis functions
    20 alpha electrons       20 beta electrons
       nuclear repulsion energy       179.2195230686 Hartrees.
 NAtoms=   10 NActive=   10 NUniq=   10 SFac= 1.00D+00 NAtFMM=   60 NAOKFM=F Big=F
 Integral buffers will be    131072 words long.
 Raffenetti 2 integral format.
 Two-electron integral symmetry is turned on.
 ------------------------------------------------------------------------------
 Polarizable Continuum Model (PCM)
 =================================
 Model                : PCM.
 Atomic radii         : UFF (Universal Force Field).
 Polarization charges : Total charges.
 Charge compensation  : None.
 Solution method      : On-the-fly selection.
 Cavity type          : Scaled VdW (van der Waals Surface) (Alpha=1.100).
 Cavity algorithm     : GePol (No added spheres)
                        Default sphere list used, NSphG=   10.
                        Lebedev-Laikov grids with approx.  5.0 points / Ang**2.
                        Smoothing algorithm: York/Karplus (Gamma=1.0000).
                        Polarization charges: spherical gaussians, with
                                              point-specific exponents (IZeta= 3).
                        Self-potential: point-specific (ISelfS= 7).
                        Self-field    : sphere-specific E.n sum rule (ISelfD= 2).
 1st derivatives      : Analytical E(r).r(x)/FMM algorithm (CHGder, D1EAlg=3).
                        Cavity 1st derivative terms included.
 Solvent              : Water, Eps=  78.355300 Eps(inf)=   1.777849
 ------------------------------------------------------------------------------
 Spheres list:
 ISph  on   Nord     Re0    Alpha      Xe            Ye            Ze
    1   C      1    1.9255  1.100      0.719912     -0.726270      0.000004
    2   C      2    1.9255  1.100     -0.544163      0.112421      0.000018
    3   O      3    1.7500  1.100     -0.585073      1.318386     -0.000001
    4   O      4    1.7500  1.100     -1.643809     -0.662335     -0.000006
    5   N      5    1.8300  1.100      1.971909      0.008817     -0.000006
    6   H      6    1.4430  1.100      0.676424     -1.381204     -0.870887
    7   H      7    1.4430  1.100      0.676440     -1.381207      0.870893
    8   H      8    1.4430  1.100     -2.427001     -0.093065     -0.000019
    9   H      9    1.4430  1.100      2.023665      0.614220     -0.810828
   10   H     10    1.4430  1.100      2.023678      0.614220      0.810813
 ------------------------------------------------------------------------------
 One-electron integrals computed using PRISM.
 NBasis=   220 RedAO= T EigKep=  5.36D-05  NBF=   220
 NBsUse=   220 1.00D-06 EigRej= -1.00D+00 NBFU=   220
 Initial guess from the checkpoint file:  "glycine_398K.chk"
 B after Tr=     0.000000    0.000000   -0.000000
         Rot=    1.000000   -0.000000   -0.000000   -0.000989 Ang=  -0.11 deg.
 ExpMin= 3.60D-02 ExpMax= 8.59D+03 ExpMxC= 1.30D+03 IAcc=3 IRadAn=         5 AccDes= 0.00D+00
 Harris functional with IExCor=  402 and IRadAn=       5 diagonalized for initial guess.
 HarFok:  IExCor=  402 AccDes= 0.00D+00 IRadAn=         5 IDoV= 1 UseB2=F ITyADJ=14
 ICtDFT=  3500011 ScaDFX=  1.000000  1.000000  1.000000  1.000000
 FoFCou: FMM=F IPFlag=           0 FMFlag=      100000 FMFlg1=           0
         NFxFlg=           0 DoJE=T BraDBF=F KetDBF=T FulRan=T
         wScrn=  0.000000 ICntrl=       500 IOpCl=  0 I1Cent=   200000004 NGrid=           0
         NMat0=    1 NMatS0=      1 NMatT0=    0 NMatD0=    1 NMtDS0=    0 NMtDT0=    0
 Petite list used in FoFCou.
 Keep R1 ints in memory in canonical form, NReq=312713623.
 Requested convergence on RMS density matrix=1.00D-08 within 128 cycles.
 Requested convergence on MAX density matrix=1.00D-06.
 Requested convergence on             energy=1.00D-06.
 No special actions if energy rises.
 Inv3:  Mode=1 IEnd=     2787888.
 Iteration    1 A*A^-1 deviation from unit magnitude is 2.66D-15 for    445.
 Iteration    1 A*A^-1 deviation from orthogonality  is 1.89D-15 for    940    774.
 Iteration    1 A^-1*A deviation from unit magnitude is 2.89D-15 for     85.
 Iteration    1 A^-1*A deviation from orthogonality  is 2.14D-15 for    683    642.
 Error on total polarization charges =  0.01085
 SCF Done:  E(RB3LYP) =  -284.555326046     A.U. after    9 cycles
            NFock=  9  Conv=0.82D-08     -V/T= 2.0037
 D1PCM: PCM CHGder 1st derivatives, ID1Alg=3 FixD1E=F DoIter=F DoCFld=F I1PDM=0.
 Calling FoFJK, ICntrl=      2127 FMM=F ISym2X=0 I1Cent= 0 IOpClX= 0 NMat=1 NMatS=1 NMatT=0.
 ***** Axes restored to original set *****
 -------------------------------------------------------------------
 Center     Atomic                   Forces (Hartrees/Bohr)
 Number     Number              X              Y              Z
 -------------------------------------------------------------------
      1        6          -0.000011518    0.002694869   -0.000158881
      2        6           0.000267205    0.000440110   -0.000420596
      3        8          -0.000627649   -0.000756991    0.000944365
      4        8           0.000207946    0.000152944   -0.000301352
      5        7          -0.000253830   -0.002119001    0.000500098
      6        1          -0.000006352   -0.000271469   -0.000605534
      7        1           0.000589294   -0.000242862   -0.000186231
      8        1          -0.000369460   -0.000834742    0.000579333
      9        1           0.000129867    0.000469743   -0.000156233
     10        1           0.000074498    0.000467399   -0.000194969
 -------------------------------------------------------------------
 Cartesian Forces:  Max     0.002694869 RMS     0.000755532

 GradGradGradGradGradGradGradGradGradGradGradGradGradGradGradGradGradGrad
 Berny optimization.
 Using GEDIIS/GDIIS optimizer.
 FormGI is forming the generalized inverse of G from B-inverse, IUseBI=4.
 Internal  Forces:  Max     0.001379263 RMS     0.000520155
 Search for a local minimum.
 Step number   3 out of a maximum of   46
 All quantities printed in internal units (Hartrees-Bohrs-Radians)
 Mixed Optimization -- En-DIIS/RFO-DIIS
 Update second derivatives using D2CorX and points    1    2    3
 DE= -3.10D-04 DEPred=-2.84D-04 R= 1.09D+00
 TightC=F SS=  1.41D+00  RLast= 7.96D-02 DXNew= 8.4853D-01 2.3871D-01
 Trust test= 1.09D+00 RLast= 7.96D-02 DXMaxT set to 5.05D-01
 ITU=  1  1  0
 Use linear search instead of GDIIS.
     Eigenvalues ---    0.00455   0.00691   0.00917   0.02378   0.03401
     Eigenvalues ---    0.04450   0.06007   0.10177   0.13592   0.15376
     Eigenvalues ---    0.16000   0.16140   0.22691   0.25925   0.26351
     Eigenvalues ---    0.30673   0.34186   0.34387   0.34892   0.43951
     Eigenvalues ---    0.44075   0.52092   0.56072   0.94842
 RFO step:  Lambda=-4.25128746D-05 EMin= 4.55121360D-03
 Quartic linear search produced a step of  0.08850.
 Iteration  1 RMS(Cart)=  0.00477153 RMS(Int)=  0.00004280
 Iteration  2 RMS(Cart)=  0.00002554 RMS(Int)=  0.00003369
 Iteration  3 RMS(Cart)=  0.00000000 RMS(Int)=  0.00003369
 Variable       Old X    -DE/DX   Delta X   Delta X   Delta X     New X
                                 (Linear)    (Quad)   (Total)
    R1        2.86671   0.00138  -0.00032   0.00489   0.00457   2.87129
    R2        2.74359  -0.00100  -0.00252  -0.00251  -0.00503   2.73856
    R3        2.06082   0.00061   0.00025   0.00166   0.00191   2.06273
    R4        2.06082   0.00061   0.00025   0.00166   0.00191   2.06273
    R5        2.28025   0.00110  -0.00063   0.00108   0.00045   2.28070
    R6        2.54199   0.00042  -0.00043   0.00094   0.00051   2.54250
    R7        1.82968   0.00108  -0.00054   0.00215   0.00161   1.83129
    R8        1.91472  -0.00010  -0.00031  -0.00039  -0.00070   1.91402
    R9        1.91471  -0.00010  -0.00031  -0.00039  -0.00070   1.91402
    A1        2.02489  -0.00031   0.00046  -0.00001   0.00045   2.02534
    A2        1.87424  -0.00002  -0.00003  -0.00120  -0.00124   1.87300
    A3        1.87423  -0.00002  -0.00003  -0.00119  -0.00123   1.87301
    A4        1.91607   0.00026   0.00061   0.00209   0.00270   1.91877
    A5        1.91607   0.00026   0.00061   0.00209   0.00270   1.91877
    A6        1.84988  -0.00017  -0.00186  -0.00212  -0.00398   1.84590
    A7        2.19050   0.00069   0.00034   0.00248   0.00282   2.19332
    A8        1.94202   0.00044  -0.00143   0.00223   0.00080   1.94283
    A9        2.15066  -0.00113   0.00109  -0.00472  -0.00362   2.14704
   A10        1.89929   0.00003   0.00090   0.00091   0.00181   1.90110
   A11        1.92472   0.00064   0.00129   0.00677   0.00799   1.93271
   A12        1.92472   0.00064   0.00129   0.00677   0.00799   1.93271
   A13        1.85539  -0.00022   0.00176   0.00336   0.00498   1.86037
    D1        0.00002  -0.00000   0.00000  -0.00014  -0.00014  -0.00011
    D2        3.14157   0.00000  -0.00000   0.00016   0.00016  -3.14146
    D3       -2.15013  -0.00011  -0.00109  -0.00193  -0.00301  -2.15314
    D4        0.99141  -0.00011  -0.00109  -0.00163  -0.00272   0.98870
    D5        2.15018   0.00011   0.00109   0.00166   0.00275   2.15292
    D6       -0.99147   0.00011   0.00109   0.00196   0.00304  -0.98843
    D7       -1.02193  -0.00025  -0.00181  -0.00614  -0.00799  -1.02992
    D8        1.02192   0.00025   0.00181   0.00616   0.00802   1.02994
    D9        1.10620  -0.00029  -0.00104  -0.00607  -0.00715   1.09905
   D10       -3.13314   0.00020   0.00259   0.00623   0.00886  -3.12428
   D11        3.13313  -0.00021  -0.00259  -0.00622  -0.00885   3.12428
   D12       -1.10620   0.00029   0.00104   0.00608   0.00716  -1.09904
   D13       -3.14157  -0.00000   0.00000  -0.00015  -0.00015   3.14147
   D14       -0.00002   0.00000  -0.00000   0.00014   0.00014   0.00012
         Item               Value     Threshold  Converged?
 Maximum Force            0.001379     0.000450     NO 
 RMS     Force            0.000520     0.000300     NO 
 Maximum Displacement     0.014904     0.001800     NO 
 RMS     Displacement     0.004763     0.001200     NO 
 Predicted change in Energy=-2.375987D-05
 GradGradGradGradGradGradGradGradGradGradGradGradGradGradGradGradGradGrad

                          Input orientation:                          
 ---------------------------------------------------------------------
 Center     Atomic      Atomic             Coordinates (Angstroms)
 Number     Number       Type             X           Y           Z
 ---------------------------------------------------------------------
      1          6           0        0.916463   -0.134068    0.067255
      2          6           0        0.416860   -1.333435    0.855005
      3          8           0       -0.279774   -1.288139    1.839509
      4          8           0        0.851029   -2.487489    0.316625
      5          7           0        0.507741    1.165980    0.560155
      6          1           0        0.584580   -0.262060   -0.964712
      7          1           0        2.005899   -0.195430    0.038133
      8          1           0        0.513567   -3.226999    0.844214
      9          1           0       -0.502126    1.241923    0.576821
     10          1           0        0.823910    1.304088    1.512435
 ---------------------------------------------------------------------
                    Distance matrix (angstroms):
                    1          2          3          4          5
     1  C    0.000000
     2  C    1.519419   0.000000
     3  O    2.429763   1.206896   0.000000
     4  O    2.367500   1.345435   2.244177   0.000000
     5  N    1.449183   2.518387   2.877434   3.677634   0.000000
     6  H    1.091551   2.118335   3.108633   2.581734   2.090556
     7  H    1.091551   2.118344   3.108580   2.581630   2.090556
     8  H    3.214376   1.896063   2.319306   0.969075   4.402158
     9  H    2.040932   2.748525   2.836377   3.975832   1.012855
    10  H    2.040933   2.748533   2.836325   3.975771   1.012855
                    6          7          8          9         10
     6  H    0.000000
     7  H    1.740772   0.000000
     8  H    3.473920   3.473792   0.000000
     9  H    2.412305   2.940469   4.590686   0.000000
    10  H    2.940469   2.412306   4.590598   1.624072   0.000000
 Stoichiometry    C2H5NO2
 Framework group  C1[X(C2H5NO2)]
 Deg. of freedom    24
 Full point group                 C1      NOp   1
 Largest Abelian subgroup         C1      NOp   1
 Largest concise Abelian subgroup C1      NOp   1
                         Standard orientation:                         
 ---------------------------------------------------------------------
 Center     Atomic      Atomic             Coordinates (Angstroms)
 Number     Number       Type             X           Y           Z
 ---------------------------------------------------------------------
      1          6           0        0.723854   -0.724679   -0.000018
      2          6           0       -0.544371    0.112125   -0.000090
      3          8           0       -0.591761    1.318090    0.000005
      4          8           0       -1.642886   -0.664702    0.000031
      5          7           0        1.972013    0.011685    0.000033
      6          1           0        0.679466   -1.381904   -0.870401
      7          1           0        0.679389   -1.381893    0.870371
      8          1           0       -2.428786   -0.097720    0.000093
      9          1           0        2.033098    0.613963   -0.812004
     10          1           0        2.033027    0.613974    0.812068
 ---------------------------------------------------------------------
 Rotational constants (GHZ):          10.3682406           3.8570863           2.9035284
 Standard basis: 6-311++G(2df,2p) (5D, 7F)
 There are   245 symmetry adapted cartesian basis functions of A   symmetry.
 There are   220 symmetry adapted basis functions of A   symmetry.
   220 basis functions,   320 primitive gaussians,   245 cartesian basis functions
    20 alpha electrons       20 beta electrons
       nuclear repulsion energy       179.1299261163 Hartrees.
 NAtoms=   10 NActive=   10 NUniq=   10 SFac= 1.00D+00 NAtFMM=   60 NAOKFM=F Big=F
 Integral buffers will be    131072 words long.
 Raffenetti 2 integral format.
 Two-electron integral symmetry is turned on.
 ------------------------------------------------------------------------------
 Polarizable Continuum Model (PCM)
 =================================
 Model                : PCM.
 Atomic radii         : UFF (Universal Force Field).
 Polarization charges : Total charges.
 Charge compensation  : None.
 Solution method      : On-the-fly selection.
 Cavity type          : Scaled VdW (van der Waals Surface) (Alpha=1.100).
 Cavity algorithm     : GePol (No added spheres)
                        Default sphere list used, NSphG=   10.
                        Lebedev-Laikov grids with approx.  5.0 points / Ang**2.
                        Smoothing algorithm: York/Karplus (Gamma=1.0000).
                        Polarization charges: spherical gaussians, with
                                              point-specific exponents (IZeta= 3).
                        Self-potential: point-specific (ISelfS= 7).
                        Self-field    : sphere-specific E.n sum rule (ISelfD= 2).
 1st derivatives      : Analytical E(r).r(x)/FMM algorithm (CHGder, D1EAlg=3).
                        Cavity 1st derivative terms included.
 Solvent              : Water, Eps=  78.355300 Eps(inf)=   1.777849
 ------------------------------------------------------------------------------
 Spheres list:
 ISph  on   Nord     Re0    Alpha      Xe            Ye            Ze
    1   C      1    1.9255  1.100      0.723854     -0.724679     -0.000018
    2   C      2    1.9255  1.100     -0.544371      0.112125     -0.000090
    3   O      3    1.7500  1.100     -0.591761      1.318090      0.000005
    4   O      4    1.7500  1.100     -1.642886     -0.664702      0.000031
    5   N      5    1.8300  1.100      1.972013      0.011685      0.000033
    6   H      6    1.4430  1.100      0.679466     -1.381904     -0.870401
    7   H      7    1.4430  1.100      0.679389     -1.381893      0.870371
    8   H      8    1.4430  1.100     -2.428786     -0.097720      0.000093
    9   H      9    1.4430  1.100      2.033098      0.613963     -0.812004
   10   H     10    1.4430  1.100      2.033027      0.613974      0.812068
 ------------------------------------------------------------------------------
 One-electron integrals computed using PRISM.
 NBasis=   220 RedAO= T EigKep=  5.40D-05  NBF=   220
 NBsUse=   220 1.00D-06 EigRej= -1.00D+00 NBFU=   220
 Initial guess from the checkpoint file:  "glycine_398K.chk"
 B after Tr=    -0.000000    0.000000    0.000000
         Rot=    1.000000    0.000001    0.000002   -0.000923 Ang=   0.11 deg.
 Keep R1 ints in memory in canonical form, NReq=312713623.
 Requested convergence on RMS density matrix=1.00D-08 within 128 cycles.
 Requested convergence on MAX density matrix=1.00D-06.
 Requested convergence on             energy=1.00D-06.
 No special actions if energy rises.
 Inv3:  Mode=1 IEnd=     2787888.
 Iteration    1 A*A^-1 deviation from unit magnitude is 3.55D-15 for    760.
 Iteration    1 A*A^-1 deviation from orthogonality  is 1.78D-15 for    785    264.
 Iteration    1 A^-1*A deviation from unit magnitude is 2.55D-15 for    568.
 Iteration    1 A^-1*A deviation from orthogonality  is 2.44D-15 for    790    168.
 Error on total polarization charges =  0.01086
 SCF Done:  E(RB3LYP) =  -284.555352148     A.U. after    8 cycles
            NFock=  8  Conv=0.47D-08     -V/T= 2.0037
 D1PCM: PCM CHGder 1st derivatives, ID1Alg=3 FixD1E=F DoIter=F DoCFld=F I1PDM=0.
 Calling FoFJK, ICntrl=      2127 FMM=F ISym2X=0 I1Cent= 0 IOpClX= 0 NMat=1 NMatS=1 NMatT=0.
 ***** Axes restored to original set *****
 -------------------------------------------------------------------
 Center     Atomic                   Forces (Hartrees/Bohr)
 Number     Number              X              Y              Z
 -------------------------------------------------------------------
      1        6           0.000118963    0.000759098   -0.000239419
      2        6           0.000202156   -0.000050191   -0.000221757
      3        8          -0.000421156    0.000033514    0.000573122
      4        8           0.000339357   -0.000164350   -0.000487251
      5        7          -0.000103723   -0.000524364    0.000180927
      6        1          -0.000121022   -0.000055068    0.000042157
      7        1           0.000001957   -0.000052719    0.000133257
      8        1          -0.000178644    0.000028580    0.000250396
      9        1           0.000120194    0.000015016   -0.000088269
     10        1           0.000041918    0.000010484   -0.000143164
 -------------------------------------------------------------------
 Cartesian Forces:  Max     0.000759098 RMS     0.000266178

 GradGradGradGradGradGradGradGradGradGradGradGradGradGradGradGradGradGrad
 Berny optimization.
 Using GEDIIS/GDIIS optimizer.
 FormGI is forming the generalized inverse of G from B-inverse, IUseBI=4.
 Internal  Forces:  Max     0.000713513 RMS     0.000183588
 Search for a local minimum.
 Step number   4 out of a maximum of   46
 All quantities printed in internal units (Hartrees-Bohrs-Radians)
 Mixed Optimization -- En-DIIS/RFO-DIIS
 Swapping is turned off.
 Update second derivatives using D2CorX and points    1    2    3    4
 DE= -2.61D-05 DEPred=-2.38D-05 R= 1.10D+00
 TightC=F SS=  1.41D+00  RLast= 2.63D-02 DXNew= 8.4853D-01 7.8770D-02
 Trust test= 1.10D+00 RLast= 2.63D-02 DXMaxT set to 5.05D-01
 ITU=  1  1  1  0
     Eigenvalues ---    0.00455   0.00691   0.00914   0.02378   0.03098
     Eigenvalues ---    0.04438   0.06215   0.09982   0.13599   0.15597
     Eigenvalues ---    0.16000   0.16731   0.22454   0.26202   0.26467
     Eigenvalues ---    0.28373   0.34241   0.34387   0.35204   0.43951
     Eigenvalues ---    0.44110   0.51502   0.56132   0.93116
 En-DIIS/RFO-DIIS/Sim-DIIS IScMMF=       -3 using points:     4    3
 RFO step:  Lambda=-4.64972614D-06.
 DidBck=F Rises=F RFO-DIIS coefs:    1.18684   -0.18684
 Iteration  1 RMS(Cart)=  0.00090465 RMS(Int)=  0.00000559
 Iteration  2 RMS(Cart)=  0.00000155 RMS(Int)=  0.00000541
 Iteration  3 RMS(Cart)=  0.00000000 RMS(Int)=  0.00000541
 Variable       Old X    -DE/DX   Delta X   Delta X   Delta X     New X
                                 (Linear)    (Quad)   (Total)
    R1        2.87129   0.00020   0.00085   0.00021   0.00106   2.87235
    R2        2.73856  -0.00048  -0.00094  -0.00108  -0.00202   2.73654
    R3        2.06273   0.00000   0.00036  -0.00024   0.00012   2.06285
    R4        2.06273   0.00000   0.00036  -0.00025   0.00011   2.06284
    R5        2.28070   0.00071   0.00008   0.00068   0.00076   2.28147
    R6        2.54250   0.00026   0.00010   0.00046   0.00055   2.54306
    R7        1.83129   0.00018   0.00030   0.00013   0.00043   1.83171
    R8        1.91402  -0.00012  -0.00013  -0.00030  -0.00043   1.91358
    R9        1.91402  -0.00012  -0.00013  -0.00030  -0.00043   1.91358
    A1        2.02534  -0.00013   0.00008  -0.00061  -0.00053   2.02481
    A2        1.87300  -0.00003  -0.00023  -0.00060  -0.00083   1.87217
    A3        1.87301  -0.00003  -0.00023  -0.00066  -0.00089   1.87211
    A4        1.91877   0.00006   0.00050   0.00018   0.00068   1.91945
    A5        1.91877   0.00007   0.00050   0.00018   0.00068   1.91945
    A6        1.84590   0.00007  -0.00074   0.00172   0.00097   1.84687
    A7        2.19332  -0.00003   0.00053  -0.00056  -0.00003   2.19329
    A8        1.94283   0.00004   0.00015   0.00004   0.00019   1.94301
    A9        2.14704  -0.00001  -0.00068   0.00052  -0.00015   2.14688
   A10        1.90110  -0.00047   0.00034  -0.00317  -0.00283   1.89827
   A11        1.93271   0.00001   0.00149  -0.00020   0.00128   1.93399
   A12        1.93271   0.00001   0.00149  -0.00021   0.00127   1.93398
   A13        1.86037   0.00005   0.00093   0.00084   0.00175   1.86211
    D1       -0.00011   0.00001  -0.00003   0.00072   0.00070   0.00058
    D2       -3.14146  -0.00001   0.00003  -0.00082  -0.00079   3.14093
    D3       -2.15314   0.00003  -0.00056   0.00139   0.00082  -2.15232
    D4        0.98870   0.00002  -0.00051  -0.00015  -0.00066   0.98803
    D5        2.15292  -0.00002   0.00051   0.00001   0.00052   2.15344
    D6       -0.98843  -0.00003   0.00057  -0.00153  -0.00097  -0.98939
    D7       -1.02992  -0.00004  -0.00149  -0.00045  -0.00195  -1.03187
    D8        1.02994   0.00004   0.00150   0.00033   0.00184   1.03177
    D9        1.09905  -0.00012  -0.00134  -0.00155  -0.00289   1.09615
   D10       -3.12428  -0.00004   0.00165  -0.00077   0.00089  -3.12339
   D11        3.12428   0.00004  -0.00165   0.00074  -0.00092   3.12337
   D12       -1.09904   0.00012   0.00134   0.00152   0.00287  -1.09618
   D13        3.14147   0.00001  -0.00003   0.00077   0.00074  -3.14097
   D14        0.00012  -0.00001   0.00003  -0.00072  -0.00070  -0.00058
         Item               Value     Threshold  Converged?
 Maximum Force            0.000714     0.000450     NO 
 RMS     Force            0.000184     0.000300     YES
 Maximum Displacement     0.002113     0.001800     NO 
 RMS     Displacement     0.000905     0.001200     YES
 Predicted change in Energy=-2.325722D-06
 GradGradGradGradGradGradGradGradGradGradGradGradGradGradGradGradGradGrad

                          Input orientation:                          
 ---------------------------------------------------------------------
 Center     Atomic      Atomic             Coordinates (Angstroms)
 Number     Number       Type             X           Y           Z
 ---------------------------------------------------------------------
      1          6           0        0.916667   -0.133476    0.067176
      2          6           0        0.417593   -1.333709    0.855028
      3          8           0       -0.279704   -1.288950    1.839582
      4          8           0        0.851418   -2.487846    0.315815
      5          7           0        0.507295    1.164968    0.560630
      6          1           0        0.584161   -0.262126   -0.964574
      7          1           0        2.006165   -0.195021    0.038550
      8          1           0        0.512449   -3.225947    0.844826
      9          1           0       -0.502280    1.241943    0.576260
     10          1           0        0.824387    1.304535    1.512147
 ---------------------------------------------------------------------
                    Distance matrix (angstroms):
                    1          2          3          4          5
     1  C    0.000000
     2  C    1.519982   0.000000
     3  O    2.430607   1.207301   0.000000
     4  O    2.368361   1.345728   2.244695   0.000000
     5  N    1.448116   2.517559   2.876943   3.677146   0.000000
     6  H    1.091613   2.118251   3.108686   2.581599   2.090156
     7  H    1.091610   2.118208   3.108954   2.582123   2.090155
     8  H    3.214266   1.894641   2.317111   0.969301   4.400105
     9  H    2.040675   2.749156   2.837418   3.976387   1.012625
    10  H    2.040669   2.749112   2.837674   3.976693   1.012625
                    6          7          8          9         10
     6  H    0.000000
     7  H    1.741509   0.000000
     8  H    3.473227   3.473870   0.000000
     9  H    2.411793   2.940457   4.589536   0.000000
    10  H    2.940456   2.411794   4.589976   1.624760   0.000000
 Stoichiometry    C2H5NO2
 Framework group  C1[X(C2H5NO2)]
 Deg. of freedom    24
 Full point group                 C1      NOp   1
 Largest Abelian subgroup         C1      NOp   1
 Largest concise Abelian subgroup C1      NOp   1
                         Standard orientation:                         
 ---------------------------------------------------------------------
 Center     Atomic      Atomic             Coordinates (Angstroms)
 Number     Number       Type             X           Y           Z
 ---------------------------------------------------------------------
      1          6           0        0.724662   -0.724763    0.000090
      2          6           0       -0.544313    0.111926    0.000453
      3          8           0       -0.592085    1.318281   -0.000026
      4          8           0       -1.642951   -0.665235   -0.000156
      5          7           0        1.971268    0.012133   -0.000165
      6          1           0        0.679497   -1.381528   -0.870679
      7          1           0        0.679888   -1.381587    0.870831
      8          1           0       -2.427508   -0.096012   -0.000466
      9          1           0        2.033550    0.613443   -0.812543
     10          1           0        2.033900    0.613399    0.812217
 ---------------------------------------------------------------------
 Rotational constants (GHZ):          10.3641040           3.8575662           2.9035567
 Standard basis: 6-311++G(2df,2p) (5D, 7F)
 There are   245 symmetry adapted cartesian basis functions of A   symmetry.
 There are   220 symmetry adapted basis functions of A   symmetry.
   220 basis functions,   320 primitive gaussians,   245 cartesian basis functions
    20 alpha electrons       20 beta electrons
       nuclear repulsion energy       179.1224091331 Hartrees.
 NAtoms=   10 NActive=   10 NUniq=   10 SFac= 1.00D+00 NAtFMM=   60 NAOKFM=F Big=F
 Integral buffers will be    131072 words long.
 Raffenetti 2 integral format.
 Two-electron integral symmetry is turned on.
 ------------------------------------------------------------------------------
 Polarizable Continuum Model (PCM)
 =================================
 Model                : PCM.
 Atomic radii         : UFF (Universal Force Field).
 Polarization charges : Total charges.
 Charge compensation  : None.
 Solution method      : On-the-fly selection.
 Cavity type          : Scaled VdW (van der Waals Surface) (Alpha=1.100).
 Cavity algorithm     : GePol (No added spheres)
                        Default sphere list used, NSphG=   10.
                        Lebedev-Laikov grids with approx.  5.0 points / Ang**2.
                        Smoothing algorithm: York/Karplus (Gamma=1.0000).
                        Polarization charges: spherical gaussians, with
                                              point-specific exponents (IZeta= 3).
                        Self-potential: point-specific (ISelfS= 7).
                        Self-field    : sphere-specific E.n sum rule (ISelfD= 2).
 1st derivatives      : Analytical E(r).r(x)/FMM algorithm (CHGder, D1EAlg=3).
                        Cavity 1st derivative terms included.
 Solvent              : Water, Eps=  78.355300 Eps(inf)=   1.777849
 ------------------------------------------------------------------------------
 Spheres list:
 ISph  on   Nord     Re0    Alpha      Xe            Ye            Ze
    1   C      1    1.9255  1.100      0.724662     -0.724763      0.000090
    2   C      2    1.9255  1.100     -0.544313      0.111926      0.000453
    3   O      3    1.7500  1.100     -0.592085      1.318281     -0.000026
    4   O      4    1.7500  1.100     -1.642951     -0.665235     -0.000156
    5   N      5    1.8300  1.100      1.971268      0.012133     -0.000165
    6   H      6    1.4430  1.100      0.679497     -1.381528     -0.870679
    7   H      7    1.4430  1.100      0.679888     -1.381587      0.870831
    8   H      8    1.4430  1.100     -2.427508     -0.096012     -0.000466
    9   H      9    1.4430  1.100      2.033550      0.613443     -0.812543
   10   H     10    1.4430  1.100      2.033900      0.613399      0.812217
 ------------------------------------------------------------------------------
 One-electron integrals computed using PRISM.
 NBasis=   220 RedAO= T EigKep=  5.40D-05  NBF=   220
 NBsUse=   220 1.00D-06 EigRej= -1.00D+00 NBFU=   220
 Initial guess from the checkpoint file:  "glycine_398K.chk"
 B after Tr=     0.000000    0.000000   -0.000000
         Rot=    1.000000   -0.000004   -0.000010   -0.000069 Ang=  -0.01 deg.
 Keep R1 ints in memory in canonical form, NReq=312713623.
 Requested convergence on RMS density matrix=1.00D-08 within 128 cycles.
 Requested convergence on MAX density matrix=1.00D-06.
 Requested convergence on             energy=1.00D-06.
 No special actions if energy rises.
 Inv3:  Mode=1 IEnd=     2799468.
 Iteration    1 A*A^-1 deviation from unit magnitude is 2.66D-15 for      4.
 Iteration    1 A*A^-1 deviation from orthogonality  is 2.30D-15 for    609     36.
 Iteration    1 A^-1*A deviation from unit magnitude is 3.55D-15 for    547.
 Iteration    1 A^-1*A deviation from orthogonality  is 2.25D-15 for    684    644.
 Error on total polarization charges =  0.01086
 SCF Done:  E(RB3LYP) =  -284.555354560     A.U. after    7 cycles
            NFock=  7  Conv=0.80D-08     -V/T= 2.0037
 D1PCM: PCM CHGder 1st derivatives, ID1Alg=3 FixD1E=F DoIter=F DoCFld=F I1PDM=0.
 Calling FoFJK, ICntrl=      2127 FMM=F ISym2X=0 I1Cent= 0 IOpClX= 0 NMat=1 NMatS=1 NMatT=0.
 ***** Axes restored to original set *****
 -------------------------------------------------------------------
[...]
      1        6          -0.000080565   -0.000066709   -0.000096959
      2        6           0.000274546    0.000059177    0.000257639
      3        8          -0.000046529   -0.000018806   -0.000161738
      4        8          -0.000113253   -0.000047902   -0.000018611
      5        7          -0.000009120    0.000072029    0.000000186
      6        1           0.000004735    0.000023580    0.000014421
      7        1          -0.000039711   -0.000014462    0.000028965
      8        1           0.000018869    0.000010954   -0.000036672
      9        1          -0.000006643   -0.000004437    0.000003333
     10        1          -0.000002331   -0.000013423    0.000009436
 -------------------------------------------------------------------
 Cartesian Forces:  Max     0.000274546 RMS     0.000085751
 FormGI is forming the generalized inverse of G from B-inverse, IUseBI=4.

 GradGradGradGradGradGradGradGradGradGradGradGradGradGradGradGradGradGrad
 Berny optimization.
 Internal  Forces:  Max     0.000104124 RMS     0.000040238
 Search for a local minimum.
 Step number   1 out of a maximum of    2
 All quantities printed in internal units (Hartrees-Bohrs-Radians)
 Second derivative matrix not updated -- analytic derivatives used.
 ITU=  0
     Eigenvalues ---    0.00133   0.00202   0.01742   0.02845   0.03990
     Eigenvalues ---    0.04845   0.05443   0.09180   0.12497   0.14432
     Eigenvalues ---    0.14576   0.18000   0.18546   0.22480   0.23632
     Eigenvalues ---    0.31681   0.33068   0.33389   0.37057   0.39842
     Eigenvalues ---    0.44914   0.45115   0.50692   0.84389
 Angle between quadratic step and forces=  35.06 degrees.
 Linear search not attempted -- first point.
 Iteration  1 RMS(Cart)=  0.00054370 RMS(Int)=  0.00000042
 Iteration  2 RMS(Cart)=  0.00000048 RMS(Int)=  0.00000029
 Variable       Old X    -DE/DX   Delta X   Delta X   Delta X     New X
                                 (Linear)    (Quad)   (Total)
    R1        2.87261  -0.00002   0.00000  -0.00010  -0.00010   2.87251
    R2        2.73636   0.00006   0.00000   0.00024   0.00024   2.73660
    R3        2.06281  -0.00002   0.00000  -0.00009  -0.00009   2.06272
    R4        2.06282  -0.00004   0.00000  -0.00010  -0.00010   2.06273
    R5        2.28163  -0.00010   0.00000  -0.00013  -0.00013   2.28151
    R6        2.54324   0.00002   0.00000   0.00006   0.00006   2.54330
    R7        1.83185  -0.00003   0.00000  -0.00008  -0.00008   1.83177
    R8        1.91353   0.00000   0.00000   0.00003   0.00003   1.91356
    R9        1.91353   0.00000   0.00000   0.00003   0.00003   1.91356
    A1        2.02459   0.00002   0.00000   0.00003   0.00003   2.02462
    A2        1.87187   0.00002   0.00000   0.00004   0.00004   1.87191
    A3        1.87199  -0.00004   0.00000  -0.00007  -0.00007   1.87191
    A4        1.91955  -0.00002   0.00000  -0.00008  -0.00008   1.91948
    A5        1.91955   0.00001   0.00000  -0.00007  -0.00007   1.91948
    A6        1.84737   0.00001   0.00000   0.00018   0.00018   1.84755
    A7        2.19331  -0.00001   0.00000  -0.00000  -0.00000   2.19330
    A8        1.94330   0.00003   0.00000   0.00005   0.00005   1.94336
    A9        2.14657  -0.00002   0.00000  -0.00005  -0.00005   2.14653
   A10        1.89768   0.00004   0.00000   0.00019   0.00019   1.89786
   A11        1.93409  -0.00000   0.00000  -0.00017  -0.00017   1.93392
   A12        1.93411  -0.00002   0.00000  -0.00019  -0.00019   1.93392
   A13        1.86234   0.00000   0.00000  -0.00010  -0.00010   1.86224
    D1       -0.00122   0.00006   0.00000   0.00121   0.00121  -0.00000
    D2       -3.14021  -0.00007   0.00000  -0.00139  -0.00139   3.14159
    D3       -2.15387   0.00006   0.00000   0.00126   0.00126  -2.15260
    D4        0.99033  -0.00007   0.00000  -0.00134  -0.00134   0.98899
    D5        2.15152   0.00006   0.00000   0.00108   0.00108   2.15259
    D6       -0.98748  -0.00007   0.00000  -0.00152  -0.00152  -0.98900
    D7       -1.03194  -0.00002   0.00000   0.00008   0.00008  -1.03186
    D8        1.03213  -0.00002   0.00000  -0.00028  -0.00028   1.03185
    D9        1.09560   0.00001   0.00000   0.00010   0.00010   1.09570
   D10       -3.12350   0.00000   0.00000  -0.00027  -0.00027  -3.12377
   D11        3.12355   0.00001   0.00000   0.00022   0.00022   3.12377
   D12       -1.09556   0.00001   0.00000  -0.00014  -0.00014  -1.09570
   D13        3.14030   0.00007   0.00000   0.00129   0.00129   3.14159
   D14        0.00122  -0.00006   0.00000  -0.00122  -0.00122  -0.00000
         Item               Value     Threshold  Converged?
 Maximum Force            0.000104     0.000450     YES
 RMS     Force            0.000040     0.000300     YES
 Maximum Displacement     0.001647     0.001800     YES
 RMS     Displacement     0.000544     0.001200     YES
 Predicted change in Energy=-3.688652D-07
 Optimization completed.
    -- Stationary point found.
                           ----------------------------
                           !   Optimized Parameters   !
                           ! (Angstroms and Degrees)  !
 --------------------------                            --------------------------
 ! Name  Definition              Value          Derivative Info.                !
 --------------------------------------------------------------------------------
 ! R1    R(1,2)                  1.5201         -DE/DX =    0.0                 !
 ! R2    R(1,5)                  1.448          -DE/DX =    0.0001              !
 ! R3    R(1,6)                  1.0916         -DE/DX =    0.0                 !
 ! R4    R(1,7)                  1.0916         -DE/DX =    0.0                 !
 ! R5    R(2,3)                  1.2074         -DE/DX =   -0.0001              !
 ! R6    R(2,4)                  1.3458         -DE/DX =    0.0                 !
 ! R7    R(4,8)                  0.9694         -DE/DX =    0.0                 !
 ! R8    R(5,9)                  1.0126         -DE/DX =    0.0                 !
 ! R9    R(5,10)                 1.0126         -DE/DX =    0.0                 !
 ! A1    A(2,1,5)              116.0007         -DE/DX =    0.0                 !
 ! A2    A(2,1,6)              107.2504         -DE/DX =    0.0                 !
 ! A3    A(2,1,7)              107.2569         -DE/DX =    0.0                 !
 ! A4    A(5,1,6)              109.9823         -DE/DX =    0.0                 !
 ! A5    A(5,1,7)              109.9821         -DE/DX =    0.0                 !
 ! A6    A(6,1,7)              105.8467         -DE/DX =    0.0                 !
 ! A7    A(1,2,3)              125.6672         -DE/DX =    0.0                 !
 ! A8    A(1,2,4)              111.343          -DE/DX =    0.0                 !
 ! A9    A(3,2,4)              122.9896         -DE/DX =    0.0                 !
 ! A10   A(2,4,8)              108.7289         -DE/DX =    0.0                 !
 ! A11   A(1,5,9)              110.8154         -DE/DX =    0.0                 !
 ! A12   A(1,5,10)             110.8164         -DE/DX =    0.0                 !
 ! A13   A(9,5,10)             106.7044         -DE/DX =    0.0                 !
 ! D1    D(5,1,2,3)             -0.0698         -DE/DX =    0.0001              !
 ! D2    D(5,1,2,4)            180.0792         -DE/DX =   -0.0001              !
 ! D3    D(6,1,2,3)           -123.4074         -DE/DX =    0.0001              !
 ! D4    D(6,1,2,4)             56.7415         -DE/DX =   -0.0001              !
 ! D5    D(7,1,2,3)            123.2728         -DE/DX =    0.0001              !
 ! D6    D(7,1,2,4)            -56.5783         -DE/DX =   -0.0001              !
 ! D7    D(2,1,5,9)            -59.126          -DE/DX =    0.0                 !
 ! D8    D(2,1,5,10)            59.1369         -DE/DX =    0.0                 !
 ! D9    D(6,1,5,9)             62.7735         -DE/DX =    0.0                 !
 ! D10   D(6,1,5,10)          -178.9636         -DE/DX =    0.0                 !
 ! D11   D(7,1,5,9)            178.966          -DE/DX =    0.0                 !
 ! D12   D(7,1,5,10)           -62.7711         -DE/DX =    0.0                 !
 ! D13   D(1,2,4,8)            179.9258         -DE/DX =    0.0001              !
 ! D14   D(3,2,4,8)              0.0701         -DE/DX =   -0.0001              !
 --------------------------------------------------------------------------------
 GradGradGradGradGradGradGradGradGradGradGradGradGradGradGradGradGradGrad


 ----------------------------------------------------------------------

 Electric dipole moment (input orientation):
 (Debye = 10**-18 statcoulomb cm , SI units = C m)
                  (au)            (Debye)         (10**-30 SI)
   Tot        0.642413D+00      0.163285D+01      0.544660D+01
   x          0.226011D+00      0.574464D+00      0.191620D+01
   y         -0.529054D+00     -0.134472D+01     -0.448550D+01
   z         -0.285859D+00     -0.726581D+00     -0.242361D+01

 Dipole polarizability, Alpha (input orientation).
 (esu units = cm**3 , SI units = C**2 m**2 J**-1)
 Alpha(0;0):
               (au)            (10**-24 esu)      (10**-40 SI)
   iso        0.524915D+02      0.777843D+01      0.865467D+01
   aniso      0.177436D+02      0.262933D+01      0.292552D+01
   xx         0.463390D+02      0.686673D+01      0.764027D+01
   yx        -0.101149D+01     -0.149887D+00     -0.166772D+00
   yy         0.592488D+02      0.877977D+01      0.976881D+01
   zx        -0.787036D+01     -0.116627D+01     -0.129765D+01
   zy         0.196975D+00      0.291887D-01      0.324768D-01
   zz         0.518866D+02      0.768880D+01      0.855494D+01

 ----------------------------------------------------------------------

 Dipole orientation:
     6          1.57744201         -0.10968445          0.76062875
     6          0.78194097          2.50857866          1.63456151
     8          0.25104694          4.26117046          0.27352558
     8          0.73914605          2.66392086          4.17268908
     7          1.69118846         -0.48741540         -1.94714516
     1          0.26829706         -1.46092079          1.60649477
     1          3.41765375         -0.50390533          1.60528687
     1          0.22700544          4.35676530          4.64981832
     1         -0.01355964         -0.15876355         -2.75177178
     1          2.92433941          0.73392493         -2.75291738

 Electric dipole moment (dipole orientation):
 (Debye = 10**-18 statcoulomb cm , SI units = C m)
                  (au)            (Debye)         (10**-30 SI)
   Tot        0.642413D+00      0.163285D+01      0.544660D+01
   x          0.000000D+00      0.000000D+00      0.000000D+00
   y          0.000000D+00      0.000000D+00      0.000000D+00
   z          0.642413D+00      0.163285D+01      0.544660D+01

 Dipole polarizability, Alpha (dipole orientation).
 (esu units = cm**3 , SI units = C**2 m**2 J**-1)
 Alpha(0;0):
               (au)            (10**-24 esu)      (10**-40 SI)
   iso        0.524915D+02      0.777843D+01      0.865467D+01
   aniso      0.177436D+02      0.262933D+01      0.292552D+01
   xx         0.421381D+02      0.624422D+01      0.694764D+01
   yx        -0.461024D+01     -0.683167D+00     -0.760126D+00
   yy         0.559484D+02      0.829070D+01      0.922465D+01
   zx        -0.156639D+00     -0.232116D-01     -0.258264D-01
   zy         0.560825D+00      0.831057D-01      0.924675D-01
   zz         0.593878D+02      0.880037D+01      0.979173D+01

 ----------------------------------------------------------------------
 1\1\GINC-A094\Freq\RB3LYP\6-311++G(2df,2p)\C2H5N1O2\MADANI\18-Aug-2025
 \0\\# freq b3lyp/6-311++g(2df,2p) scrf=(iefpcm,solvent=water) temperat
 ure=398 Geom=AllChk Guess=Read\\glycine OPT→Freq @ 398 K\\0,1\C,0.91
 64900529,-0.1333053173,0.0667705739\C,0.4164762539,-1.3337816179,0.853
 9206163\O,-0.2797459052,-1.2891026072,1.8393462298\O,0.8518186779,-2.4
 88057048,0.315994184\N,0.507490698,1.1648771361,0.5609363105\H,0.58391
 4684,-0.2614143789,-0.9650027084\H,2.0059560445,-0.1954510957,0.038674
 5\H,0.5132271238,-3.2256823795,0.8460374599\H,-0.5020213078,1.24236258
 15,0.5762508562\H,0.8245436781,1.3039247269,1.5125119778\\Version=ES64
 L-G16RevB.01\State=1-A\HF=-284.5553544\RMSD=2.833e-09\RMSF=8.575e-05\Z
 eroPoint=0.079409\Thermal=0.0883933\Dipole=0.2260114,-0.5290536,-0.285
 8589\DipoleDeriv=0.1780511,-0.2656034,0.052587,-0.0949349,0.5935164,0.
 1090272,0.0408897,0.3498331,0.1219092,0.9318447,-0.2725818,-0.8272753,
 -0.2628926,1.7519154,0.2773997,-0.8279266,0.2899946,1.4883306,-0.83771
 61,0.1277405,0.5375237,-0.0523088,-0.8293287,0.0994449,0.5507575,-0.15
 57909,-1.2217016,-0.5600384,0.2347579,0.1563547,0.4057723,-1.5159173,-
 0.5029935,0.1441691,-0.2588529,-0.6255133,-0.3757887,0.0276854,0.06705
 2,-0.0069164,-0.8989538,0.0475222,0.0692918,-0.0014989,-0.425249,0.097
 0501,-0.0145432,-0.0769315,-0.0126215,-0.0074567,-0.0137185,-0.0323071
 ,-0.0634201,-0.0559985,-0.0777967,0.0614386,0.0247686,0.01199,-0.00256
 41,0.0142722,-0.0166661,-0.003275,0.1141103,0.351892,-0.0248872,0.0688
 029,-0.0187986,0.3772298,0.028056,0.0683891,0.0369921,0.2998207,0.0675
 842,0.0162696,0.0120018,-0.066348,0.2600273,-0.0839949,0.0524024,-0.12
 50739,0.2366286,0.2249178,0.1097237,-0.014884,0.0970586,0.2715318,0.02
 49847,-0.0489998,-0.068908,0.0676629\Polar=46.3389875,-1.0114879,59.24
 88087,-7.8703576,0.1969749,51.8865792\Quadrupole=0.4540731,1.0852808,-
 1.5393539,-0.8793899,2.623127,1.3181462\PG=C01 [X(C2H5N1O2)]\NImag=0\\
 0.56683323,-0.03016316,0.46188428,0.02531231,0.05062718,0.54410755,-0.
 09818608,-0.02353781,0.00097396,0.46477925,-0.02102808,-0.13143437,0.0
 3185581,0.00321249,0.55248972,0.00091046,0.03569377,-0.10213750,-0.330
 67460,-0.02626717,0.70293229,0.00366711,0.00099358,0.03337958,-0.28071
 129,-0.01077681,0.28968107,0.29087424,-0.01483109,0.00857899,0.0222925
 6,0.00386816,-0.11181405,-0.00317106,-0.02476930,0.10296213,0.03438074
 ,-0.00025964,-0.02154935,0.28876231,0.01766893,-0.48818634,-0.36870616
 ,0.03022282,0.55108640,0.01197769,-0.00658873,0.00044567,-0.08934484,0
 .02266838,0.03568039,-0.00860486,0.04330943,0.04885364,0.16733836,0.00
 943814,-0.03536830,-0.01017032,0.03214176,-0.23049539,-0.03418383,0.04
 212980,-0.00723848,-0.05735734,0.04772079,0.56838653,-0.00064588,0.012
 45910,0.01207337,0.03501666,-0.02068714,-0.11128586,0.04894753,-0.0590
 4008,-0.03747828,-0.19001061,-0.10379458,0.31190528,-0.10608771,0.0591
 3884,-0.00014371,0.00363770,-0.00350554,-0.00132337,0.00073316,-0.0029
 2907,-0.00253029,0.00054381,-0.00210231,0.00057285,0.61600449,0.028587
 83,-0.18155541,-0.03539175,0.00937356,-0.03706343,-0.01071799,0.000960
 04,0.00052925,-0.00145933,-0.00226626,-0.01120979,0.00403329,-0.089001
 81,0.31803479,0.00185852,-0.07868556,-0.10089947,-0.00216516,0.0075795
 0,0.00510050,-0.00278180,0.00404159,0.00249952,0.00058006,0.00377906,-
 0.00023095,0.10653357,0.15038264,0.52623679,-0.07019766,-0.00767423,-0
 .08056606,0.00447350,-0.00120645,0.01474231,-0.00271290,-0.00171013,0.
 00032619,-0.00021379,0.00086693,-0.00047976,0.00461191,0.00270549,0.01
 104461,0.07367952,-0.00480985,-0.05006887,-0.01594418,0.01213840,0.005
 41139,0.02400045,-0.00515845,-0.00306141,0.00118828,-0.00119632,-0.001
 79178,-0.00109772,-0.01150851,-0.01065674,-0.03413359,0.00768527,0.062
 82363,-0.07931412,-0.02329738,-0.27647057,-0.00595773,-0.00011666,-0.0
 2155165,0.00182548,0.00279590,0.00025076,0.00052788,-0.00071178,0.0015
 7588,-0.00242135,-0.00652781,-0.00923619,0.08357611,0.02822989,0.30299
 387,-0.30539407,0.00885880,0.00303281,-0.01419231,-0.00062841,0.001474
 43,0.00068222,-0.00181346,0.00040420,0.00127478,0.00058187,-0.00011265
 ,-0.00754789,0.00547919,0.00076741,-0.00984754,-0.00030125,-0.00066252
 ,0.33262047,0.00093887,-0.04851903,-0.00033280,-0.02690135,0.00364871,
 -0.00356246,0.00080364,-0.00278905,0.00527019,0.00157475,-0.00168480,0
 .00083643,0.03680977,-0.00826312,-0.00010000,-0.00211461,0.00024139,0.
 00037393,-0.01280755,0.06037157,0.00211430,-0.00017058,-0.04282465,0.0
 2303980,0.00225613,-0.00115089,-0.00105215,0.00246957,-0.00339349,-0.0
 0104999,-0.00105046,-0.00001688,0.01310554,-0.00344997,0.00052984,-0.0
 3071869,0.00026575,0.00122508,-0.00671862,0.00113376,0.04650040,0.0021
 3859,0.00151129,0.00217338,0.00906119,0.01248472,-0.00981717,-0.004579
 67,-0.00166046,-0.00082221,-0.08287878,-0.13104538,0.10667575,0.000582
 35,0.00083874,0.00013760,-0.00035836,-0.00012114,0.00068336,0.00046804
 ,0.00041876,-0.00048805,0.07549309,0.00400633,-0.00128437,-0.00532006,
 -0.01341640,-0.04997271,0.02257535,-0.00296419,0.00996172,0.00317396,-
 0.10466301,-0.28236664,0.16662564,-0.00026567,-0.00132831,0.00051257,0
 .00008792,0.00054159,0.00036119,-0.00035458,0.00054699,-0.00003810,0.1
 1765493,0.32396191,0.00199279,-0.00182219,0.00104183,-0.00803474,-0.01
 406373,0.01509043,-0.00074322,0.00132218,-0.00428263,0.10488236,0.2039
 8972,-0.17639418,0.00021042,-0.00104613,0.00048699,-0.00017387,-0.0004
 3125,0.00039313,0.00040847,-0.00005161,-0.00043271,-0.09857254,-0.1880
 2153,0.16405749,-0.00947258,-0.00207257,0.00245509,0.00045965,-0.00066
 050,0.00023967,0.00042657,-0.00065900,-0.00073476,-0.00003943,-0.00056
 787,-0.00010843,-0.42555700,0.04152181,-0.01367173,0.00029593,-0.00006
 689,0.00012947,0.00156268,0.00177564,0.00134585,0.00005527,-0.00006372
 ,-0.00000805,0.44556236,0.03953263,-0.00995173,-0.00075345,0.00343190,
 -0.00030066,-0.00083852,-0.00116816,0.00136490,0.00035850,-0.00055067,
 0.00083897,0.00013481,0.00244893,-0.03315189,-0.02207199,-0.00065920,0
 .00113705,0.00003034,0.00083755,-0.00470646,-0.00202727,-0.00023333,-0
 .00004048,-0.00007500,-0.03793808,0.04571607,0.01532586,0.00279780,-0.
 00074078,-0.00133153,0.00080338,0.00029201,0.00015239,-0.00110365,0.00
 049465,0.00023296,-0.00073819,-0.00003402,0.01754151,-0.02489339,-0.04
 401815,0.00045989,0.00052049,0.00015196,0.00131831,-0.00376446,-0.0004
 9418,0.00003942,0.00005140,0.00001140,0.00634993,0.02250798,0.04517731
 ,0.00472147,-0.00046601,0.01293698,0.00002323,-0.00055980,-0.00091320,
 0.00022541,0.00119492,0.00006635,-0.00005293,0.00083627,0.00014453,-0.
 08692084,0.00180142,-0.10230309,0.00026940,0.00333874,0.00161342,0.000
 37362,-0.00049791,0.00042200,0.00001827,-0.00002161,0.00003837,-0.0132
 9345,-0.00570158,-0.04008874,0.09463581,-0.01167163,-0.01228118,-0.036
 86299,-0.00031070,-0.00046922,-0.00352854,-0.00005015,0.00150600,0.001
 19362,-0.00000836,0.00092968,0.00053025,0.01091535,-0.03533533,-0.0313
 0421,0.00201901,-0.00457625,-0.00113762,0.00014785,0.00115379,0.000611
 18,0.00015188,-0.00001969,0.00019953,-0.00126883,-0.00090578,0.0038186
 3,0.00007556,0.04999798,-0.00193498,0.00265749,-0.01260045,0.00037102,
 0.00097094,0.00089701,-0.00070272,0.00017017,0.00055877,-0.00014236,0.
 00023771,-0.00011436,-0.13154516,-0.07092956,-0.38046889,0.00178925,-0
 .00259811,0.00066773,0.00008816,0.00019701,0.00005747,-0.00000953,0.00
 007957,0.00002824,0.00400295,0.00273461,-0.00084020,0.12808338,0.06648
 015,0.39181467\\0.00008056,0.00006671,0.00009696,-0.00027455,-0.000059
 18,-0.00025764,0.00004653,0.00001881,0.00016174,0.00011325,0.00004790,
 0.00001861,0.00000912,-0.00007203,-0.00000019,-0.00000473,-0.00002358,
 -0.00001442,0.00003971,0.00001446,-0.00002897,-0.00001887,-0.00001095,
 0.00003667,0.00000664,0.00000444,-0.00000333,0.00000233,0.00001342,-0.
 00000944\\\@


 WE DON'T KNOW ONE MILLIONTH OF ONE PERCENT ABOUT
 ANYTHING.
                                     T. A. EDISON.
 Job cpu time:       0 days  0 hours  8 minutes 36.6 seconds.
 Elapsed time:       0 days  0 hours  8 minutes 39.0 seconds.
 File lengths (MBytes):  RWF=     92 Int=      0 D2E=      0 Chk=      8 Scr=      1
 Normal termination of Gaussian 16 at Mon Aug 18 16:59:48 2025.
 0 hours  8 minutes 30.1 seconds.
 Elapsed time:       0 days  0 hours  8 minutes 33.0 seconds.
 File lengths (MBytes):  RWF=     92 Int=      0 D2E=      0 Chk=      8 Scr=      1
 Normal termination of Gaussian 16 at Mon Aug 18 16:59:35 2025.
